VARIABLES="X","Y","U","V","P"
ZONE  F=POINT
I=64, J=64
0.00000000	0.00000000	0.00000000	0.00000000	1.00000000
0.01562500	0.00000000	0.00000000	0.00000000	1.00000000
0.03125000	0.00000000	0.00000000	0.00000000	1.00000000
0.04687500	0.00000000	0.00000000	0.00000000	1.00000000
0.06250000	0.00000000	0.00000000	0.00000000	1.00000000
0.07812500	0.00000000	0.00000000	0.00000000	1.00000000
0.09375000	0.00000000	0.00000000	0.00000000	1.00000000
0.10937500	0.00000000	0.00000000	0.00000000	1.00000000
0.12500000	0.00000000	0.00000000	0.00000000	1.00000000
0.14062500	0.00000000	0.00000000	0.00000000	1.00000000
0.15625000	0.00000000	0.00000000	0.00000000	1.00000000
0.17187500	0.00000000	0.00000000	0.00000000	1.00000000
0.18750000	0.00000000	0.00000000	0.00000000	1.00000000
0.20312500	0.00000000	0.00000000	0.00000000	1.00000000
0.21875000	0.00000000	0.00000000	0.00000000	1.00000000
0.23437500	0.00000000	0.00000000	0.00000000	1.00000000
0.25000000	0.00000000	0.00000000	0.00000000	1.00000000
0.26562500	0.00000000	0.00000000	0.00000000	1.00000000
0.28125000	0.00000000	0.00000000	0.00000000	1.00000000
0.29687500	0.00000000	0.00000000	0.00000000	1.00000000
0.31250000	0.00000000	0.00000000	0.00000000	1.00000000
0.32812500	0.00000000	0.00000000	0.00000000	1.00000000
0.34375000	0.00000000	0.00000000	0.00000000	1.00000000
0.35937500	0.00000000	0.00000000	0.00000000	1.00000000
0.37500000	0.00000000	0.00000000	0.00000000	1.00000000
0.39062500	0.00000000	0.00000000	0.00000000	1.00000000
0.40625000	0.00000000	0.00000000	0.00000000	1.00000000
0.42187500	0.00000000	0.00000000	0.00000000	1.00000000
0.43750000	0.00000000	0.00000000	0.00000000	1.00000000
0.45312500	0.00000000	0.00000000	0.00000000	1.00000000
0.46875000	0.00000000	0.00000000	0.00000000	1.00000000
0.48437500	0.00000000	0.00000000	0.00000000	1.00000000
0.50000000	0.00000000	0.00000000	0.00000000	1.00000000
0.51562500	0.00000000	0.00000000	0.00000000	1.00000000
0.53125000	0.00000000	0.00000000	0.00000000	1.00000000
0.54687500	0.00000000	0.00000000	0.00000000	1.00000000
0.56250000	0.00000000	0.00000000	0.00000000	1.00000000
0.57812500	0.00000000	0.00000000	0.00000000	1.00000000
0.59375000	0.00000000	0.00000000	0.00000000	1.00000000
0.60937500	0.00000000	0.00000000	0.00000000	1.00000000
0.62500000	0.00000000	0.00000000	0.00000000	1.00000000
0.64062500	0.00000000	0.00000000	0.00000000	1.00000000
0.65625000	0.00000000	0.00000000	0.00000000	1.00000000
0.67187500	0.00000000	0.00000000	0.00000000	1.00000000
0.68750000	0.00000000	0.00000000	0.00000000	1.00000000
0.70312500	0.00000000	0.00000000	0.00000000	1.00000000
0.71875000	0.00000000	0.00000000	0.00000000	1.00000000
0.73437500	0.00000000	0.00000000	0.00000000	1.00000000
0.75000000	0.00000000	0.00000000	0.00000000	1.00000000
0.76562500	0.00000000	0.00000000	0.00000000	1.00000000
0.78125000	0.00000000	0.00000000	0.00000000	1.00000000
0.79687500	0.00000000	0.00000000	0.00000000	1.00000000
0.81250000	0.00000000	0.00000000	0.00000000	1.00000000
0.82812500	0.00000000	0.00000000	0.00000000	1.00000000
0.84375000	0.00000000	0.00000000	0.00000000	1.00000000
0.85937500	0.00000000	0.00000000	0.00000000	1.00000000
0.87500000	0.00000000	0.00000000	0.00000000	1.00000000
0.89062500	0.00000000	0.00000000	0.00000000	1.00000000
0.90625000	0.00000000	0.00000000	0.00000000	1.00000000
0.92187500	0.00000000	0.00000000	0.00000000	1.00000000
0.93750000	0.00000000	0.00000000	0.00000000	1.00000000
0.95312500	0.00000000	0.00000000	0.00000000	1.00000000
0.96875000	0.00000000	0.00000000	0.00000000	1.00000000
0.98437500	0.00000000	0.00000000	0.00000000	1.00000000
0.00000000	0.01562500	0.00000000	0.00000000	1.00000000
0.01562500	0.01562500	0.00003213	-0.00003213	1.01577706
0.03125000	0.01562500	0.00009757	-0.00003331	1.01573990
0.04687500	0.01562500	0.00014086	-0.00000997	1.01562012
0.06250000	0.01562500	0.00012549	0.00002534	1.01543588
0.07812500	0.01562500	0.00003532	0.00006484	1.01520909
0.09375000	0.01562500	-0.00013371	0.00010419	1.01495943
0.10937500	0.01562500	-0.00037892	0.00014103	1.01470322
0.12500000	0.01562500	-0.00069408	0.00017414	1.01445339
0.14062500	0.01562500	-0.00107118	0.00020296	1.01421993
0.15625000	0.01562500	-0.00150151	0.00022736	1.01401031
0.17187500	0.01562500	-0.00197626	0.00024740	1.01383001
0.18750000	0.01562500	-0.00248694	0.00026329	1.01368296
0.20312500	0.01562500	-0.00302552	0.00027529	1.01357184
0.21875000	0.01562500	-0.00358450	0.00028369	1.01349844
0.23437500	0.01562500	-0.00415693	0.00028874	1.01346390
0.25000000	0.01562500	-0.00473636	0.00029069	1.01346883
0.26562500	0.01562500	-0.00531679	0.00028973	1.01351354
0.28125000	0.01562500	-0.00589255	0.00028602	1.01359804
0.29687500	0.01562500	-0.00645825	0.00027968	1.01372218
0.31250000	0.01562500	-0.00700870	0.00027077	1.01388559
0.32812500	0.01562500	-0.00753884	0.00025936	1.01408774
0.34375000	0.01562500	-0.00804368	0.00024548	1.01432788
0.35937500	0.01562500	-0.00851833	0.00022916	1.01460501
0.37500000	0.01562500	-0.00895791	0.00021042	1.01491785
0.39062500	0.01562500	-0.00935763	0.00018930	1.01526475
0.40625000	0.01562500	-0.00971278	0.00016586	1.01564365
0.42187500	0.01562500	-0.01001882	0.00014018	1.01605205
0.43750000	0.01562500	-0.01027141	0.00011240	1.01648693
0.45312500	0.01562500	-0.01046651	0.00008269	1.01694474
0.46875000	0.01562500	-0.01060048	0.00005128	1.01742138
0.48437500	0.01562500	-0.01067020	0.00001843	1.01791221
0.50000000	0.01562500	-0.01067313	-0.00001551	1.01841202
0.51562500	0.01562500	-0.01060747	-0.00005016	1.01891515
0.53125000	0.01562500	-0.01047224	-0.00008508	1.01941550
0.54687500	0.01562500	-0.01026739	-0.00011978	1.01990663
0.56250000	0.01562500	-0.00999387	-0.00015374	1.02038187
0.57812500	0.01562500	-0.00965372	-0.00018641	1.02083448
0.59375000	0.01562500	-0.00925011	-0.00021721	1.02125774
0.60937500	0.01562500	-0.00878735	-0.00024556	1.02164519
0.62500000	0.01562500	-0.00827089	-0.00027090	1.02199074
0.64062500	0.01562500	-0.00770730	-0.00029270	1.02228888
0.65625000	0.01562500	-0.00710416	-0.00031044	1.02253487
0.67187500	0.01562500	-0.00647001	-0.00032371	1.02272487
0.68750000	0.01562500	-0.00581418	-0.00033212	1.02285613
0.70312500	0.01562500	-0.00514664	-0.00033542	1.02292708
0.71875000	0.01562500	-0.00447779	-0.00033342	1.02293751
0.73437500	0.01562500	-0.00381831	-0.00032606	1.02288855
0.75000000	0.01562500	-0.00317885	-0.00031340	1.02278281
0.76562500	0.01562500	-0.00256986	-0.00029560	1.02262430
0.78125000	0.01562500	-0.00200129	-0.00027297	1.02241850
0.79687500	0.01562500	-0.00148238	-0.00024594	1.02217223
0.81250000	0.01562500	-0.00102138	-0.00021506	1.02189363
0.82812500	0.01562500	-0.00062528	-0.00018103	1.02159203
0.84375000	0.01562500	-0.00029956	-0.00014469	1.02127788
0.85937500	0.01562500	-0.00004781	-0.00010705	1.02096263
0.87500000	0.01562500	0.00012859	-0.00006935	1.02065856
0.89062500	0.01562500	0.00023110	-0.00003316	1.02037869
0.90625000	0.01562500	0.00026474	-0.00000049	1.02013642
0.92187500	0.01562500	0.00023933	0.00002590	1.01994510
0.93750000	0.01562500	0.00017130	0.00004212	1.01981680
0.95312500	0.01562500	0.00008634	0.00004283	1.01975974
0.96875000	0.01562500	0.00002175	0.00002175	1.01977211
0.98437500	0.01562500	0.00000000	0.00000000	1.00000000
0.00000000	0.03125000	0.00000000	0.00000000	1.00000000
0.01562500	0.03125000	0.00003407	-0.00009833	1.01581422
0.03125000	0.03125000	0.00009476	-0.00009325	1.01578139
0.04687500	0.03125000	0.00010294	-0.00000151	1.01567183
0.06250000	0.03125000	0.00000476	0.00013042	1.01551087
0.07812500	0.03125000	-0.00022270	0.00027738	1.01531490
0.09375000	0.03125000	-0.00058644	0.00042440	1.01509924
0.10937500	0.03125000	-0.00108329	0.00056287	1.01487715
0.12500000	0.03125000	-0.00170390	0.00068806	1.01465963
0.14062500	0.03125000	-0.00243544	0.00079767	1.01445547
0.15625000	0.03125000	-0.00326334	0.00089087	1.01427148
0.17187500	0.03125000	-0.00417246	0.00096776	1.01411282
0.18750000	0.03125000	-0.00514780	0.00102894	1.01398331
0.20312500	0.03125000	-0.00617487	0.00107527	1.01388569
0.21875000	0.03125000	-0.00723992	0.00110772	1.01382186
0.23437500	0.03125000	-0.00833000	0.00112722	1.01379309
0.25000000	0.03125000	-0.00943297	0.00113461	1.01380020
0.26562500	0.03125000	-0.01053733	0.00113061	1.01384362
0.28125000	0.03125000	-0.01163223	0.00111580	1.01392354
0.29687500	0.03125000	-0.01270725	0.00109062	1.01403991
0.31250000	0.03125000	-0.01375237	0.00105539	1.01419247
0.32812500	0.03125000	-0.01475783	0.00101033	1.01438078
0.34375000	0.03125000	-0.01571406	0.00095559	1.01460418
0.35937500	0.03125000	-0.01661167	0.00089131	1.01486175
0.37500000	0.03125000	-0.01744144	0.00081762	1.01515228
0.39062500	0.03125000	-0.01819433	0.00073470	1.01547423
0.40625000	0.03125000	-0.01886156	0.00064283	1.01582568
0.42187500	0.03125000	-0.01943470	0.00054238	1.01620426
0.43750000	0.03125000	-0.01990581	0.00043389	1.01660717
0.45312500	0.03125000	-0.02026755	0.00031805	1.01703108
0.46875000	0.03125000	-0.02051340	0.00019575	1.01747218
0.48437500	0.03125000	-0.02063782	0.00006809	1.01792615
0.50000000	0.03125000	-0.02063642	-0.00006364	1.01838818
0.51562500	0.03125000	-0.02050618	-0.00019793	1.01885304
0.53125000	0.03125000	-0.02024562	-0.00033310	1.01931510
0.54687500	0.03125000	-0.01985497	-0.00046727	1.01976842
0.56250000	0.03125000	-0.01933630	-0.00059844	1.02020689
0.57812500	0.03125000	-0.01869365	-0.00072450	1.02062432
0.59375000	0.03125000	-0.01793310	-0.00084327	1.02101458
0.60937500	0.03125000	-0.01706279	-0.00095257	1.02137175
0.62500000	0.03125000	-0.01609290	-0.00105024	1.02169031
0.64062500	0.03125000	-0.01503559	-0.00113427	1.02196527
0.65625000	0.03125000	-0.01390484	-0.00120276	1.02219234
0.67187500	0.03125000	-0.01271631	-0.00125407	1.02236811
0.68750000	0.03125000	-0.01148707	-0.00128684	1.02249015
0.70312500	0.03125000	-0.01023528	-0.00130004	1.02255716
0.71875000	0.03125000	-0.00897990	-0.00129302	1.02256905
0.73437500	0.03125000	-0.00774031	-0.00126555	1.02252700
0.75000000	0.03125000	-0.00653585	-0.00121784	1.02243354
0.76562500	0.03125000	-0.00538543	-0.00115058	1.02229248
0.78125000	0.03125000	-0.00430706	-0.00106493	1.02210893
0.79687500	0.03125000	-0.00331740	-0.00096255	1.02188926
0.81250000	0.03125000	-0.00243125	-0.00084560	1.02164096
0.82812500	0.03125000	-0.00166110	-0.00071675	1.02137259
0.84375000	0.03125000	-0.00101655	-0.00057925	1.02109362
0.85937500	0.03125000	-0.00050376	-0.00043702	1.02081431
0.87500000	0.03125000	-0.00012475	-0.00029480	1.02054556
0.89062500	0.03125000	0.00012347	-0.00015845	1.02029861
0.90625000	0.03125000	0.00025004	-0.00003541	1.02008484
0.92187500	0.03125000	0.00027173	0.00006455	1.01991520
0.93750000	0.03125000	0.00021483	0.00012839	1.01979946
0.95312500	0.03125000	0.00011744	0.00013890	1.01974512
0.96875000	0.03125000	0.00003210	0.00007561	1.01975662
0.98437500	0.03125000	0.00000000	0.00000000	1.00000000
0.00000000	0.04687500	0.00000000	0.00000000	1.00000000
0.01562500	0.04687500	0.00001784	-0.00015024	1.01592778
0.03125000	0.04687500	0.00003329	-0.00011750	1.01589011
0.04687500	0.04687500	-0.00003985	0.00008768	1.01577496
0.06250000	0.04687500	-0.00026550	0.00036506	1.01562085
0.07812500	0.04687500	-0.00066603	0.00067072	1.01544033
0.09375000	0.04687500	-0.00124812	0.00097687	1.01524522
0.10937500	0.04687500	-0.00200740	0.00126653	1.01504606
0.12500000	0.04687500	-0.00293222	0.00152983	1.01485182
0.14062500	0.04687500	-0.00400637	0.00176158	1.01466986
0.15625000	0.04687500	-0.00521113	0.00195962	1.01450605
0.17187500	0.04687500	-0.00652668	0.00212368	1.01436494
0.18750000	0.04687500	-0.00793299	0.00225466	1.01424997
0.20312500	0.04687500	-0.00941044	0.00235407	1.01416371
0.21875000	0.04687500	-0.01094016	0.00242368	1.01410796
0.23437500	0.04687500	-0.01250410	0.00246529	1.01408401
0.25000000	0.04687500	-0.01408515	0.00248055	1.01409272
0.26562500	0.04687500	-0.01566702	0.00247090	1.01413459
0.28125000	0.04687500	-0.01723415	0.00243753	1.01420991
0.29687500	0.04687500	-0.01877160	0.00238136	1.01431872
0.31250000	0.04687500	-0.02026492	0.00230309	1.01446088
0.32812500	0.04687500	-0.02170007	0.00220323	1.01463604
0.34375000	0.04687500	-0.02306333	0.00208218	1.01484364
0.35937500	0.04687500	-0.02434128	0.00194028	1.01508289
0.37500000	0.04687500	-0.02552078	0.00177792	1.01535271
0.39062500	0.04687500	-0.02658908	0.00159558	1.01565169
0.40625000	0.04687500	-0.02753384	0.00139394	1.01597808
0.42187500	0.04687500	-0.02834332	0.00117390	1.01632970
0.43750000	0.04687500	-0.02900653	0.00093669	1.01670396
0.45312500	0.04687500	-0.02951344	0.00068390	1.01709779
0.46875000	0.04687500	-0.02985520	0.00041751	1.01750765
0.48437500	0.04687500	-0.03002436	0.00013991	1.01792953
0.50000000	0.04687500	-0.03001518	-0.00014605	1.01835897
0.51562500	0.04687500	-0.02982380	-0.00043714	1.01879110
0.53125000	0.04687500	-0.02944854	-0.00072971	1.01922068
0.54687500	0.04687500	-0.02889009	-0.00101977	1.01964219
0.56250000	0.04687500	-0.02815166	-0.00130304	1.02004995
0.57812500	0.04687500	-0.02723916	-0.00157504	1.02043819
0.59375000	0.04687500	-0.02616129	-0.00183116	1.02080121
0.60937500	0.04687500	-0.02492953	-0.00206676	1.02113351
0.62500000	0.04687500	-0.02355813	-0.00227735	1.02142997
0.64062500	0.04687500	-0.02206400	-0.00245862	1.02168596
0.65625000	0.04687500	-0.02046651	-0.00260664	1.02189752
0.67187500	0.04687500	-0.01878726	-0.00271796	1.02206152
0.68750000	0.04687500	-0.01704975	-0.00278972	1.02217574
0.70312500	0.04687500	-0.01527895	-0.00281976	1.02223905
0.71875000	0.04687500	-0.01350089	-0.00280674	1.02225143
0.73437500	0.04687500	-0.01174211	-0.00275020	1.02221406
0.75000000	0.04687500	-0.01002911	-0.00265064	1.02212937
0.76562500	0.04687500	-0.00838777	-0.00250953	1.02200098
0.78125000	0.04687500	-0.00684272	-0.00232939	1.02183371
0.79687500	0.04687500	-0.00541669	-0.00211379	1.02163350
0.81250000	0.04687500	-0.00412986	-0.00186735	1.02140731
0.82812500	0.04687500	-0.00299918	-0.00159584	1.02116300
0.84375000	0.04687500	-0.00203765	-0.00130625	1.02090922
0.85937500	0.04687500	-0.00125354	-0.00100692	1.02065521
0.87500000	0.04687500	-0.00064956	-0.00070789	1.02041063
0.89062500	0.04687500	-0.00022185	-0.00042129	1.02018535
0.90625000	0.04687500	0.00004115	-0.00016214	1.01998915
0.92187500	0.04687500	0.00016006	0.00005068	1.01983141
0.93750000	0.04687500	0.00016613	0.00019309	1.01972070
0.95312500	0.04687500	0.00010312	0.00023460	1.01966463
0.96875000	0.04687500	0.00003033	0.00013804	1.01967046
0.98437500	0.04687500	0.00000000	0.00000000	1.00000000
0.00000000	0.06250000	0.00000000	0.00000000	1.00000000
0.01562500	0.06250000	-0.00000758	-0.00016050	1.01610184
0.03125000	0.06250000	-0.00005890	-0.00007138	1.01605046
0.04687500	0.06250000	-0.00024044	0.00029624	1.01591708
0.06250000	0.06250000	-0.00062234	0.00076405	1.01575720
0.07812500	0.06250000	-0.00122139	0.00127130	1.01558013
0.09375000	0.06250000	-0.00204075	0.00177773	1.01539475
0.10937500	0.06250000	-0.00307334	0.00225754	1.01520913
0.12500000	0.06250000	-0.00430477	0.00269507	1.01503030
0.14062500	0.06250000	-0.00571585	0.00308158	1.01486413
0.15625000	0.06250000	-0.00728452	0.00341304	1.01471538
0.17187500	0.06250000	-0.00898722	0.00368850	1.01458782
0.18750000	0.06250000	-0.01079998	0.00390891	1.01448435
0.20312500	0.06250000	-0.01269904	0.00407633	1.01440714
0.21875000	0.06250000	-0.01466127	0.00419336	1.01435780
0.23437500	0.06250000	-0.01666439	0.00426267	1.01433748
0.25000000	0.06250000	-0.01868702	0.00428685	1.01434699
0.26562500	0.06250000	-0.02070869	0.00426814	1.01438686
0.28125000	0.06250000	-0.02270972	0.00420845	1.01445739
0.29687500	0.06250000	-0.02467113	0.00410930	1.01455872
0.31250000	0.06250000	-0.02657452	0.00397187	1.01469079
0.32812500	0.06250000	-0.02840202	0.00379710	1.01485336
0.34375000	0.06250000	-0.03013618	0.00358572	1.01504602
0.35937500	0.06250000	-0.03175996	0.00333846	1.01526810
0.37500000	0.06250000	-0.03325679	0.00305608	1.01551868
0.39062500	0.06250000	-0.03461062	0.00273954	1.01579655
0.40625000	0.06250000	-0.03580602	0.00239013	1.01610012
0.42187500	0.06250000	-0.03682840	0.00200956	1.01642745
0.43750000	0.06250000	-0.03766417	0.00160002	1.01677616
0.45312500	0.06250000	-0.03830105	0.00116435	1.01714345
0.46875000	0.06250000	-0.03872823	0.00070600	1.01752604
0.48437500	0.06250000	-0.03893679	0.00022914	1.01792021
0.50000000	0.06250000	-0.03891989	-0.00026137	1.01832181
0.51562500	0.06250000	-0.03867309	-0.00075999	1.01872626
0.53125000	0.06250000	-0.03819466	-0.00126055	1.01912867
0.54687500	0.06250000	-0.03748575	-0.00175630	1.01952384
0.56250000	0.06250000	-0.03655066	-0.00224003	1.01990639
0.57812500	0.06250000	-0.03539698	-0.00270423	1.02027088
0.59375000	0.06250000	-0.03403567	-0.00314116	1.02061190
0.60937500	0.06250000	-0.03248108	-0.00354311	1.02092426
0.62500000	0.06250000	-0.03075091	-0.00390256	1.02120307
0.64062500	0.06250000	-0.02886609	-0.00421236	1.02144395
0.65625000	0.06250000	-0.02685053	-0.00446596	1.02164314
0.67187500	0.06250000	-0.02473081	-0.00465761	1.02179767
0.68750000	0.06250000	-0.02253581	-0.00478258	1.02190544
0.70312500	0.06250000	-0.02029621	-0.00483730	1.02196538
0.71875000	0.06250000	-0.01804393	-0.00481954	1.02197749
0.73437500	0.06250000	-0.01581153	-0.00472858	1.02194294
0.75000000	0.06250000	-0.01363154	-0.00456526	1.02186401
0.76562500	0.06250000	-0.01153570	-0.00433210	1.02174416
0.78125000	0.06250000	-0.00955422	-0.00403336	1.02158796
0.79687500	0.06250000	-0.00771501	-0.00367506	1.02140098
0.81250000	0.06250000	-0.00604286	-0.00326505	1.02118971
0.82812500	0.06250000	-0.00455861	-0.00281307	1.02096146
0.84375000	0.06250000	-0.00327832	-0.00233086	1.02072415
0.85937500	0.06250000	-0.00221236	-0.00183239	1.02048618
0.87500000	0.06250000	-0.00136453	-0.00133423	1.02025621
0.89062500	0.06250000	-0.00073108	-0.00085611	1.02004298
0.90625000	0.06250000	-0.00029963	-0.00042177	1.01985506
0.92187500	0.06250000	-0.00004812	-0.00006012	1.01970063
0.93750000	0.06250000	0.00005644	0.00019326	1.01958731
0.95312500	0.06250000	0.00005942	0.00029447	1.01952224
0.96875000	0.06250000	0.00002101	0.00018938	1.01951248
0.98437500	0.06250000	0.00000000	0.00000000	1.00000000
0.00000000	0.07812500	0.00000000	0.00000000	1.00000000
0.01562500	0.07812500	-0.00003696	-0.00011597	1.01631757
0.03125000	0.07812500	-0.00016518	0.00006364	1.01624655
0.04687500	0.07812500	-0.00046980	0.00064738	1.01608569
0.06250000	0.07812500	-0.00102538	0.00135040	1.01591061
0.07812500	0.07812500	-0.00183976	0.00209839	1.01572779
0.09375000	0.07812500	-0.00291006	0.00284030	1.01554356
0.10937500	0.07812500	-0.00422479	0.00354228	1.01536380
0.12500000	0.07812500	-0.00576604	0.00418300	1.01519372
0.14062500	0.07812500	-0.00751141	0.00475010	1.01503771
0.15625000	0.07812500	-0.00943568	0.00523745	1.01489937
0.17187500	0.07812500	-0.01151210	0.00564320	1.01478158
0.18750000	0.07812500	-0.01371336	0.00596821	1.01468659
0.20312500	0.07812500	-0.01601226	0.00621498	1.01461608
0.21875000	0.07812500	-0.01838214	0.00638682	1.01457135
0.23437500	0.07812500	-0.02079715	0.00648733	1.01455331
0.25000000	0.07812500	-0.02323231	0.00651998	1.01456267
0.26562500	0.07812500	-0.02566353	0.00648789	1.01459989
0.28125000	0.07812500	-0.02806755	0.00639374	1.01466529
0.29687500	0.07812500	-0.03042185	0.00623971	1.01475906
0.31250000	0.07812500	-0.03270458	0.00602758	1.01488122
0.32812500	0.07812500	-0.03489445	0.00575875	1.01503166
0.34375000	0.07812500	-0.03697070	0.00543447	1.01521010
0.35937500	0.07812500	-0.03891313	0.00505592	1.01541604
0.37500000	0.07812500	-0.04070209	0.00462441	1.01564875
0.39062500	0.07812500	-0.04231864	0.00414158	1.01590719
0.40625000	0.07812500	-0.04374466	0.00360952	1.01619002
0.42187500	0.07812500	-0.04496307	0.00303095	1.01649552
0.43750000	0.07812500	-0.04595803	0.00240937	1.01682155
0.45312500	0.07812500	-0.04671530	0.00174913	1.01716556
0.46875000	0.07812500	-0.04722245	0.00105556	1.01752454
0.48437500	0.07812500	-0.04746926	0.00033495	1.01789503
0.50000000	0.07812500	-0.04744799	-0.00040536	1.01827315
0.51562500	0.07812500	-0.04715372	-0.00115707	1.01865458
0.53125000	0.07812500	-0.04658465	-0.00191098	1.01903468
0.54687500	0.07812500	-0.04574239	-0.00265705	1.01940850
0.56250000	0.07812500	-0.04463211	-0.00338464	1.01977089
0.57812500	0.07812500	-0.04326282	-0.00408260	1.02011663
0.59375000	0.07812500	-0.04164737	-0.00473956	1.02044049
0.60937500	0.07812500	-0.03980251	-0.00534417	1.02073745
0.62500000	0.07812500	-0.03774885	-0.00588534	1.02100277
0.64062500	0.07812500	-0.03551068	-0.00635258	1.02123217
0.65625000	0.07812500	-0.03311570	-0.00673628	1.02142199
0.67187500	0.07812500	-0.03059470	-0.00702800	1.02156930
0.68750000	0.07812500	-0.02798112	-0.00722078	1.02167204
0.70312500	0.07812500	-0.02531046	-0.00730937	1.02172914
0.71875000	0.07812500	-0.02261970	-0.00729051	1.02174056
0.73437500	0.07812500	-0.01994658	-0.00716313	1.02170737
0.75000000	0.07812500	-0.01732880	-0.00692848	1.02163175
0.76562500	0.07812500	-0.01480323	-0.00659029	1.02151699
0.78125000	0.07812500	-0.01240502	-0.00615486	1.02136741
0.79687500	0.07812500	-0.01016668	-0.00563111	1.02118829
0.81250000	0.07812500	-0.00811719	-0.00503064	1.02098576
0.82812500	0.07812500	-0.00628106	-0.00436786	1.02076662
0.84375000	0.07812500	-0.00467737	-0.00366005	1.02053823
0.85937500	0.07812500	-0.00331888	-0.00292765	1.02030830
0.87500000	0.07812500	-0.00221105	-0.00219462	1.02008469
0.89062500	0.07812500	-0.00135118	-0.00148905	1.01987523
0.90625000	0.07812500	-0.00072746	-0.00084400	1.01968754
0.92187500	0.07812500	-0.00031817	-0.00029869	1.01952880
0.93750000	0.07812500	-0.00009083	0.00009993	1.01940574
0.95312500	0.07812500	-0.00000125	0.00029524	1.01932452
0.96875000	0.07812500	0.00000769	0.00021808	1.01929098
0.98437500	0.07812500	0.00000000	0.00000000	1.00000000
0.00000000	0.09375000	0.00000000	0.00000000	1.00000000
0.01562500	0.09375000	-0.00006750	-0.00001151	1.01655703
0.03125000	0.09375000	-0.00027626	0.00029616	1.01646294
0.04687500	0.09375000	-0.00071067	0.00115387	1.01626841
0.06250000	0.09375000	-0.00144931	0.00213812	1.01607139
0.07812500	0.09375000	-0.00248899	0.00316472	1.01587594
0.09375000	0.09375000	-0.00381893	0.00417420	1.01568624
0.10937500	0.09375000	-0.00542185	0.00512603	1.01550621
0.12500000	0.09375000	-0.00727538	0.00599402	1.01533936
0.14062500	0.09375000	-0.00935343	0.00676250	1.01518869
0.15625000	0.09375000	-0.01162754	0.00742343	1.01505663
0.17187500	0.09375000	-0.01406791	0.00797402	1.01494516
0.18750000	0.09375000	-0.01664425	0.00841499	1.01485578
0.20312500	0.09375000	-0.01932639	0.00874923	1.01478965
0.21875000	0.09375000	-0.02208466	0.00898073	1.01474766
0.23437500	0.09375000	-0.02489018	0.00911395	1.01473045
0.25000000	0.09375000	-0.02771489	0.00915323	1.01473855
0.26562500	0.09375000	-0.03053164	0.00910259	1.01477234
0.28125000	0.09375000	-0.03331407	0.00896548	1.01483212
0.29687500	0.09375000	-0.03603662	0.00874481	1.01491810
0.31250000	0.09375000	-0.03867440	0.00844297	1.01503039
0.32812500	0.09375000	-0.04120314	0.00806196	1.01516901
0.34375000	0.09375000	-0.04359920	0.00760358	1.01533383
0.35937500	0.09375000	-0.04583956	0.00706960	1.01552451
0.37500000	0.09375000	-0.04790189	0.00646203	1.01574054
0.39062500	0.09375000	-0.04976469	0.00578331	1.01598110
0.40625000	0.09375000	-0.05140746	0.00503656	1.01624508
0.42187500	0.09375000	-0.05281090	0.00422574	1.01653100
0.43750000	0.09375000	-0.05395722	0.00335586	1.01683698
0.45312500	0.09375000	-0.05483043	0.00243310	1.01716071
0.46875000	0.09375000	-0.05541663	0.00146494	1.01749945
0.48437500	0.09375000	-0.05570443	0.00046017	1.01784997
0.50000000	0.09375000	-0.05568524	-0.00057104	1.01820861
0.51562500	0.09375000	-0.05535365	-0.00161726	1.01857131
0.53125000	0.09375000	-0.05470772	-0.00266579	1.01893359
0.54687500	0.09375000	-0.05374930	-0.00370293	1.01929069
0.56250000	0.09375000	-0.05248426	-0.00471408	1.01963761
0.57812500	0.09375000	-0.05092265	-0.00568406	1.01996925
0.59375000	0.09375000	-0.04907885	-0.00659736	1.02028049
0.60937500	0.09375000	-0.04697154	-0.00743853	1.02056634
0.62500000	0.09375000	-0.04462370	-0.00819247	1.02082211
0.64062500	0.09375000	-0.04206240	-0.00884493	1.02104355
0.65625000	0.09375000	-0.03931854	-0.00938279	1.02122695
0.67187500	0.09375000	-0.03642646	-0.00979457	1.02136937
0.68750000	0.09375000	-0.03342349	-0.01007076	1.02146869
0.70312500	0.09375000	-0.03034934	-0.01020420	1.02152373
0.71875000	0.09375000	-0.02724539	-0.01019038	1.02153439
0.73437500	0.09375000	-0.02415398	-0.01002780	1.02150160
0.75000000	0.09375000	-0.02111746	-0.00971811	1.02142742
0.76562500	0.09375000	-0.01817736	-0.00926633	1.02131495
0.78125000	0.09375000	-0.01537338	-0.00868102	1.02116832
0.79687500	0.09375000	-0.01274240	-0.00797428	1.02099254
0.81250000	0.09375000	-0.01031745	-0.00716191	1.02079344
0.82812500	0.09375000	-0.00812673	-0.00626345	1.02057745
0.84375000	0.09375000	-0.00619258	-0.00530230	1.02035148
0.85937500	0.09375000	-0.00453052	-0.00430595	1.02012268
0.87500000	0.09375000	-0.00314835	-0.00330632	1.01989830
0.89062500	0.09375000	-0.00204528	-0.00234030	1.01968547
0.90625000	0.09375000	-0.00121124	-0.00145052	1.01949103
0.92187500	0.09375000	-0.00062621	-0.00068649	1.01932138
0.93750000	0.09375000	-0.00025978	-0.00010604	1.01918235
0.95312500	0.09375000	-0.00007085	0.00022269	1.01907915
0.96875000	0.09375000	-0.00000747	0.00021831	1.01901624
0.98437500	0.09375000	0.00000000	0.00000000	1.00000000
0.00000000	0.10937500	0.00000000	0.00000000	1.00000000
0.01562500	0.10937500	-0.00009781	0.00015379	1.01680415
0.03125000	0.10937500	-0.00038717	0.00062897	1.01668531
0.04687500	0.10937500	-0.00095322	0.00182153	1.01645332
0.06250000	0.10937500	-0.00187872	0.00313459	1.01622979
0.07812500	0.10937500	-0.00314842	0.00447763	1.01601680
0.09375000	0.10937500	-0.00474247	0.00578527	1.01581665
0.10937500	0.10937500	-0.00663671	0.00701212	1.01563155
0.12500000	0.10937500	-0.00880348	0.00812822	1.01546348
0.14062500	0.10937500	-0.01121250	0.00911537	1.01531409
0.15625000	0.10937500	-0.01383179	0.00996396	1.01518475
0.17187500	0.10937500	-0.01662850	0.01067055	1.01507647
0.18750000	0.10937500	-0.01956950	0.01123580	1.01499004
0.20312500	0.10937500	-0.02262194	0.01166299	1.01492605
0.21875000	0.10937500	-0.02575353	0.01195683	1.01488493
0.23437500	0.10937500	-0.02893275	0.01212259	1.01486704
0.25000000	0.10937500	-0.03212895	0.01216550	1.01487269
0.26562500	0.10937500	-0.03531234	0.01209044	1.01490214
0.28125000	0.10937500	-0.03845393	0.01190166	1.01495566
0.29687500	0.10937500	-0.04152553	0.01160279	1.01503348
0.31250000	0.10937500	-0.04449964	0.01119688	1.01513580
0.32812500	0.10937500	-0.04734942	0.01068658	1.01526276
0.34375000	0.10937500	-0.05004870	0.01007430	1.01541438
0.35937500	0.10937500	-0.05257200	0.00936252	1.01559054
0.37500000	0.10937500	-0.05489462	0.00855405	1.01579092
0.39062500	0.10937500	-0.05699280	0.00765227	1.01601496
0.40625000	0.10937500	-0.05884391	0.00666147	1.01626177
0.42187500	0.10937500	-0.06042669	0.00558705	1.01653015
0.43750000	0.10937500	-0.06172154	0.00443573	1.01681847
0.45312500	0.10937500	-0.06271085	0.00321575	1.01712467
0.46875000	0.10937500	-0.06337936	0.00193700	1.01744624
0.48437500	0.10937500	-0.06371450	0.00061105	1.01778019
0.50000000	0.10937500	-0.06370681	-0.00074881	1.01812308
0.51562500	0.10937500	-0.06335026	-0.00212764	1.01847100
0.53125000	0.10937500	-0.06264261	-0.00350898	1.01881963
0.54687500	0.10937500	-0.06158573	-0.00487504	1.01916434
0.56250000	0.10937500	-0.06018584	-0.00620691	1.01950020
0.57812500	0.10937500	-0.05845371	-0.00748497	1.01982214
0.59375000	0.10937500	-0.05640479	-0.00868918	1.02012506
0.60937500	0.10937500	-0.05405926	-0.00979955	1.02040395
0.62500000	0.10937500	-0.05144194	-0.01079660	1.02065405
0.64062500	0.10937500	-0.04858219	-0.01166186	1.02087101
0.65625000	0.10937500	-0.04551353	-0.01237838	1.02105104
0.67187500	0.10937500	-0.04227337	-0.01293123	1.02119104
0.68750000	0.10937500	-0.03890240	-0.01330804	1.02128876
0.70312500	0.10937500	-0.03544406	-0.01349942	1.02134289
0.71875000	0.10937500	-0.03194371	-0.01349945	1.02135314
0.73437500	0.10937500	-0.02844788	-0.01330598	1.02132031
0.75000000	0.10937500	-0.02500332	-0.01292101	1.02124628
0.76562500	0.10937500	-0.02165596	-0.01235088	1.02113398
0.78125000	0.10937500	-0.01844995	-0.01160646	1.02098735
0.79687500	0.10937500	-0.01542650	-0.01070327	1.02081119
0.81250000	0.10937500	-0.01262280	-0.00966156	1.02061108
0.82812500	0.10937500	-0.01007098	-0.00850635	1.02039318
0.84375000	0.10937500	-0.00779698	-0.00726755	1.02016403
0.85937500	0.10937500	-0.00581962	-0.00598011	1.01993042
0.87500000	0.10937500	-0.00414970	-0.00468426	1.01969911
0.89062500	0.10937500	-0.00278918	-0.00342594	1.01947673
0.90625000	0.10937500	-0.00173064	-0.00225747	1.01926953
0.92187500	0.10937500	-0.00095681	-0.00123841	1.01908329
0.93750000	0.10937500	-0.00044046	-0.00043689	1.01892314
0.95312500	0.10937500	-0.00014462	0.00006876	1.01879347
0.96875000	0.10937500	-0.00002331	0.00018754	1.01869771
0.98437500	0.10937500	0.00000000	0.00000000	1.00000000
0.00000000	0.12500000	0.00000000	0.00000000	1.00000000
0.01562500	0.12500000	-0.00012722	0.00037881	1.01704485
0.03125000	0.12500000	-0.00049546	0.00106155	1.01690067
0.04687500	0.12500000	-0.00119209	0.00265163	1.01662921
0.06250000	0.12500000	-0.00230451	0.00434240	1.01637628
0.07812500	0.12500000	-0.00380511	0.00604011	1.01614236
0.09375000	0.12500000	-0.00566427	0.00767599	1.01592815
0.10937500	0.12500000	-0.00785026	0.00920162	1.01573433
0.12500000	0.12500000	-0.01032949	0.01058470	1.01556150
0.14062500	0.12500000	-0.01306700	0.01180541	1.01541010
0.15625000	0.12500000	-0.01602703	0.01285324	1.01528041
0.17187500	0.12500000	-0.01917354	0.01372447	1.01517259
0.18750000	0.12500000	-0.02247064	0.01441998	1.01508668
0.20312500	0.12500000	-0.02588296	0.01494357	1.01502269
0.21875000	0.12500000	-0.02937584	0.01530072	1.01498062
0.23437500	0.12500000	-0.03291547	0.01549755	1.01496050
0.25000000	0.12500000	-0.03646895	0.01554021	1.01496242
0.26562500	0.12500000	-0.04000423	0.01543439	1.01498652
0.28125000	0.12500000	-0.04349011	0.01518517	1.01503301
0.29687500	0.12500000	-0.04689615	0.01479691	1.01510217
0.31250000	0.12500000	-0.05019261	0.01427333	1.01519426