VARIABLES="X / L","Texact"
ZONE F=POINT
I=512
0.00000000	20.00000000
0.00195312	20.09748876
0.00390625	20.19497385
0.00585938	20.29245160
0.00781250	20.38991834
0.00976562	20.48737040
0.01171875	20.58480411
0.01367188	20.68221580
0.01562500	20.77960181
0.01757812	20.87695847
0.01953125	20.97428211
0.02148438	21.07156907
0.02343750	21.16881568
0.02539062	21.26601829
0.02734375	21.36317323
0.02929688	21.46027685
0.03125000	21.55732550
0.03320312	21.65431551
0.03515625	21.75124323
0.03710938	21.84810502
0.03906250	21.94489724
0.04101562	22.04161623
0.04296875	22.13825835
0.04492188	22.23481997
0.04687500	22.33129745
0.04882812	22.42768715
0.05078125	22.52398546
0.05273438	22.62018874
0.05468750	22.71629337
0.05664062	22.81229573
0.05859375	22.90819221
0.06054688	23.00397920
0.06250000	23.09965310
0.06445312	23.19521029
0.06640625	23.29064718
0.06835938	23.38596018
0.07031250	23.48114571
0.07226562	23.57620017
0.07421875	23.67111999
0.07617188	23.76590159
0.07812500	23.86054141
0.08007812	23.95503588
0.08203125	24.04938145
0.08398438	24.14357456
0.08593750	24.23761166
0.08789062	24.33148923
0.08984375	24.42520371
0.09179688	24.51875159
0.09375000	24.61212934
0.09570312	24.70533345
0.09765625	24.79836040
0.09960938	24.89120670
0.10156250	24.98386884
0.10351562	25.07634335
0.10546875	25.16862673
0.10742188	25.26071552
0.10937500	25.35260625
0.11132812	25.44429545
0.11328125	25.53577968
0.11523438	25.62705549
0.11718750	25.71811945
0.11914062	25.80896812
0.12109375	25.89959808
0.12304688	25.99000593
0.12500000	26.08018826
0.12695312	26.17014167
0.12890625	26.25986279
0.13085938	26.34934822
0.13281250	26.43859460
0.13476562	26.52759857
0.13671875	26.61635678
0.13867188	26.70486589
0.14062500	26.79312257
0.14257812	26.88112348
0.14453125	26.96886533
0.14648438	27.05634480
0.14843750	27.14355861
0.15039062	27.23050347
0.15234375	27.31717610
0.15429688	27.40357324
0.15625000	27.48969164
0.15820312	27.57552806
0.16015625	27.66107927
0.16210938	27.74634204
0.16406250	27.83131317
0.16601562	27.91598945
0.16796875	28.00036769
0.16992188	28.08444473
0.17187500	28.16821740
0.17382812	28.25168253
0.17578125	28.33483700
0.17773438	28.41767766
0.17968750	28.50020140
0.18164062	28.58240511
0.18359375	28.66428571
0.18554688	28.74584009
0.18750000	28.82706520
0.18945312	28.90795798
0.19140625	28.98851537
0.19335938	29.06873436
0.19531250	29.14861191
0.19726562	29.22814502
0.19921875	29.30733069
0.20117188	29.38616595
0.20312500	29.46464783
0.20507812	29.54277337
0.20703125	29.62053963
0.20898438	29.69794368
0.21093750	29.77498260
0.21289062	29.85165351
0.21484375	29.92795351
0.21679688	30.00387972
0.21875000	30.07942930
0.22070312	30.15459938
0.22265625	30.22938716
0.22460938	30.30378980
0.22656250	30.37780451
0.22851562	30.45142851
0.23046875	30.52465901
0.23242188	30.59749327
0.23437500	30.66992853
0.23632812	30.74196208
0.23828125	30.81359120
0.24023438	30.88481320
0.24218750	30.95562538
0.24414062	31.02602510
0.24609375	31.09600969
0.24804688	31.16557652
0.25000000	31.23472298
0.25195312	31.30344645
0.25390625	31.37174435
0.25585938	31.43961412
0.25781250	31.50705319
0.25976562	31.57405903
0.26171875	31.64062911
0.26367188	31.70676092
0.26562500	31.77245199
0.26757812	31.83769983
0.26953125	31.90250198
0.27148438	31.96685601
0.27343750	32.03075950
0.27539062	32.09421004
0.27734375	32.15720523
0.27929688	32.21974271
0.28125000	32.28182013
0.28320312	32.34343515
0.28515625	32.40458544
0.28710938	32.46526870
0.28906250	32.52548266
0.29101562	32.58522503
0.29296875	32.64449358
0.29492188	32.70328607
0.29687500	32.76160030
0.29882812	32.81943405
0.30078125	32.87678516
0.30273438	32.93365146
0.30468750	32.99003083
0.30664062	33.04592112
0.30859375	33.10132024
0.31054688	33.15622611
0.31250000	33.21063665
0.31445312	33.26454981
0.31640625	33.31796358
0.31835938	33.37087593
0.32031250	33.42328487
0.32226562	33.47518844
0.32421875	33.52658467
0.32617188	33.57747164
0.32812500	33.62784742
0.33007812	33.67771012
0.33203125	33.72705786
0.33398438	33.77588878
0.33593750	33.82420105
0.33789062	33.87199285
0.33984375	33.91926238
0.34179688	33.96600785
0.34375000	34.01222751
0.34570312	34.05791962
0.34765625	34.10308245
0.34960938	34.14771431
0.35156250	34.19181352
0.35351562	34.23537842
0.35546875	34.27840736
0.35742188	34.32089872
0.35937500	34.36285092
0.36132812	34.40426236
0.36328125	34.44513148
0.36523438	34.48545676
0.36718750	34.52523667
0.36914062	34.56446971
0.37109375	34.60315441
0.37304688	34.64128930
0.37500000	34.67887296
0.37695312	34.71590397
0.37890625	34.75238093
0.38085938	34.78830248
0.38281250	34.82366725
0.38476562	34.85847392
0.38671875	34.89272117
0.38867188	34.92640773
0.39062500	34.95953231
0.39257812	34.99209368
0.39453125	35.02409060
0.39648438	35.05552187
0.39843750	35.08638631
0.40039062	35.11668276
0.40234375	35.14641007
0.40429688	35.17556713
0.40625000	35.20415284
0.40820312	35.23216612
0.41015625	35.25960592
0.41210938	35.28647120
0.41406250	35.31276095
0.41601562	35.33847419
0.41796875	35.36360995
0.41992188	35.38816727
0.42187500	35.41214523
0.42382812	35.43554294
0.42578125	35.45835951
0.42773438	35.48059408
0.42968750	35.50224581
0.43164062	35.52331390
0.43359375	35.54379753
0.43554688	35.56369596
0.43750000	35.58300842
0.43945312	35.60173419
0.44140625	35.61987256
0.44335938	35.63742285
0.44531250	35.65438440
0.44726562	35.67075658
0.44921875	35.68653875
0.45117188	35.70173034
0.45312500	35.71633077
0.45507812	35.73033949
0.45703125	35.74375597
0.45898438	35.75657970
0.46093750	35.76881021
0.46289062	35.78044703
0.46484375	35.79148973
0.46679688	35.80193788
0.46875000	35.81179111
0.47070312	35.82104902
0.47265625	35.82971129
0.47460938	35.83777757
0.47656250	35.84524757
0.47851562	35.85212101
0.48046875	35.85839762
0.48242188	35.86407717
0.48437500	35.86915945
0.48632812	35.87364427
0.48828125	35.87753145
0.49023438	35.88082085
0.49218750	35.88351234
0.49414062	35.88560583
0.49609375	35.88710124
0.49804688	35.88799851
0.50000000	35.88829760
0.50195312	35.88799851
0.50390625	35.88710124
0.50585938	35.88560583
0.50781250	35.88351234
0.50976562	35.88082085
0.51171875	35.87753145
0.51367188	35.87364427
0.51562500	35.86915945
0.51757812	35.86407717
0.51953125	35.85839762
0.52148438	35.85212101
0.52343750	35.84524757
0.52539062	35.83777757
0.52734375	35.82971129
0.52929688	35.82104902
0.53125000	35.81179111
0.53320312	35.80193788
0.53515625	35.79148973
0.53710938	35.78044703
0.53906250	35.76881021
0.54101562	35.75657970
0.54296875	35.74375597
0.54492188	35.73033949
0.54687500	35.71633077
0.54882812	35.70173034
0.55078125	35.68653875
0.55273438	35.67075658
0.55468750	35.65438440
0.55664062	35.63742285
0.55859375	35.61987256
0.56054688	35.60173419
0.56250000	35.58300842
0.56445312	35.56369596
0.56640625	35.54379753
0.56835938	35.52331390
0.57031250	35.50224581
0.57226562	35.48059408
0.57421875	35.45835951
0.57617188	35.43554294
0.57812500	35.41214523
0.58007812	35.38816727
0.58203125	35.36360995
0.58398438	35.33847419
0.58593750	35.31276095
0.58789062	35.28647120
0.58984375	35.25960592
0.59179688	35.23216612
0.59375000	35.20415284
0.59570312	35.17556713
0.59765625	35.14641007
0.59960938	35.11668276
0.60156250	35.08638631
0.60351562	35.05552187
0.60546875	35.02409060
0.60742188	34.99209368
0.60937500	34.95953231
0.61132812	34.92640773
0.61328125	34.89272117
0.61523438	34.85847392
0.61718750	34.82366725
0.61914062	34.78830248
0.62109375	34.75238093
0.62304688	34.71590397
0.62500000	34.67887296
0.62695312	34.64128930
0.62890625	34.60315441
0.63085938	34.56446971
0.63281250	34.52523667
0.63476562	34.48545676
0.63671875	34.44513148
0.63867188	34.40426236
0.64062500	34.36285092
0.64257812	34.32089872
0.64453125	34.27840736
0.64648438	34.23537842
0.64843750	34.19181352
0.65039062	34.14771431
0.65234375	34.10308245
0.65429688	34.05791962
0.65625000	34.01222751
0.65820312	33.96600785
0.66015625	33.91926238
0.66210938	33.87199285
0.66406250	33.82420105
0.66601562	33.77588878
0.66796875	33.72705786
0.66992188	33.67771012
0.67187500	33.62784742
0.67382812	33.57747164
0.67578125	33.52658467
0.67773438	33.47518844
0.67968750	33.42328487
0.68164062	33.37087593
0.68359375	33.31796358
0.68554688	33.26454981
0.68750000	33.21063665
0.68945312	33.15622611
0.69140625	33.10132024
0.69335938	33.04592112
0.69531250	32.99003083
0.69726562	32.93365146
0.69921875	32.87678516
0.70117188	32.81943405
0.70312500	32.76160030
0.70507812	32.70328607
0.70703125	32.64449358
0.70898438	32.58522503
0.71093750	32.52548266
0.71289062	32.46526870
0.71484375	32.40458544
0.71679688	32.34343515
0.71875000	32.28182013
0.72070312	32.21974271
0.72265625	32.15720523
0.72460938	32.09421004
0.72656250	32.03075950
0.72851562	31.96685601
0.73046875	31.90250198
0.73242188	31.83769983
0.73437500	31.77245199
0.73632812	31.70676092
0.73828125	31.64062911
0.74023438	31.57405903
0.74218750	31.50705319
0.74414062	31.43961412
0.74609375	31.37174435
0.74804688	31.30344645
0.75000000	31.23472298
0.75195312	31.16557652
0.75390625	31.09600969
0.75585938	31.02602510
0.75781250	30.95562538
0.75976562	30.88481320
0.76171875	30.81359120
0.76367188	30.74196208
0.76562500	30.66992853
0.76757812	30.59749327
0.76953125	30.52465901
0.77148438	30.45142851
0.77343750	30.37780451
0.77539062	30.30378980
0.77734375	30.22938716
0.77929688	30.15459938
0.78125000	30.07942930
0.78320312	30.00387972
0.78515625	29.92795351
0.78710938	29.85165351
0.78906250	29.77498260
0.79101562	29.69794368
0.79296875	29.62053963
0.79492188	29.54277337
0.79687500	29.46464783
0.79882812	29.38616595
0.80078125	29.30733069
0.80273438	29.22814502
0.80468750	29.14861191
0.80664062	29.06873436
0.80859375	28.98851537
0.81054688	28.90795798
0.81250000	28.82706520
0.81445312	28.74584009
0.81640625	28.66428571
0.81835938	28.58240511
0.82031250	28.50020140
0.82226562	28.41767766
0.82421875	28.33483700
0.82617188	28.25168253
0.82812500	28.16821740
0.83007812	28.08444473
0.83203125	28.00036769
0.83398438	27.91598945
0.83593750	27.83131317
0.83789062	27.74634204
0.83984375	27.66107927
0.84179688	27.57552806
0.84375000	27.48969164
0.84570312	27.40357324
0.84765625	27.31717610
0.84960938	27.23050347
0.85156250	27.14355861
0.85351562	27.05634480
0.85546875	26.96886533
0.85742188	26.88112348
0.85937500	26.79312257
0.86132812	26.70486589
0.86328125	26.61635678
0.86523438	26.52759857
0.86718750	26.43859460
0.86914062	26.34934822
0.87109375	26.25986279
0.87304688	26.17014167
0.87500000	26.08018826
0.87695312	25.99000593
0.87890625	25.89959808
0.88085938	25.80896812
0.88281250	25.71811945
0.88476562	25.62705549
0.88671875	25.53577968
0.88867188	25.44429545
0.89062500	25.35260625
0.89257812	25.26071552
0.89453125	25.16862673
0.89648438	25.07634335
0.89843750	24.98386884
0.90039062	24.89120670
0.90234375	24.79836040
0.90429688	24.70533345
0.90625000	24.61212934
0.90820312	24.51875159
0.91015625	24.42520371
0.91210938	24.33148923
0.91406250	24.23761166
0.91601562	24.14357456
0.91796875	24.04938145
0.91992188	23.95503588
0.92187500	23.86054141
0.92382812	23.76590159
0.92578125	23.67111999
0.92773438	23.57620017
0.92968750	23.48114571
0.93164062	23.38596018
0.93359375	23.29064718
0.93554688	23.19521029
0.93750000	23.09965310
0.93945312	23.00397920
0.94140625	22.90819221
0.94335938	22.81229573
0.94531250	22.71629337
0.94726562	22.62018874
0.94921875	22.52398546
0.95117188	22.42768715
0.95312500	22.33129745
0.95507812	22.23481997
0.95703125	22.13825835
0.95898438	22.04161623
0.96093750	21.94489724
0.96289062	21.84810502
0.96484375	21.75124323
0.96679688	21.65431551
0.96875000	21.55732550
0.97070312	21.46027685
0.97265625	21.36317323
0.97460938	21.26601829
0.97656250	21.16881568
0.97851562	21.07156907
0.98046875	20.97428211
0.98242188	20.87695847
0.98437500	20.77960181
0.98632812	20.68221580
0.98828125	20.58480411
0.99023438	20.48737040
0.99218750	20.38991834
0.99414062	20.29245160
0.99609375	20.19497385
0.99804688	20.09748876
