VARIABLES="U","Y"
ZONE F=POINT
I=32
0.00000000	0.00000000
-0.02242542	0.03225806
-0.04227329	0.06451613
-0.06043166	0.09677419
-0.07758445	0.12903226
-0.09424175	0.16129032
-0.11074997	0.19354839
-0.12728650	0.22580645
-0.14384456	0.25806452
-0.16021427	0.29032258
-0.17596778	0.32258065
-0.19045718	0.35483871
-0.20283390	0.38709677
-0.21209692	0.41935484
-0.21717256	0.45161290
-0.21702212	0.48387097
-0.21076454	0.51612903
-0.19779267	0.54838710
-0.17785584	0.58064516
-0.15108073	0.61290323
-0.11790839	0.64516129
-0.07893324	0.67741935
-0.03463633	0.70967742
0.01499398	0.74193548
0.07095726	0.77419355
0.13582037	0.80645161
0.21423089	0.83870968
0.31297104	0.87096774
0.43983275	0.90322581
0.60042714	0.93548387
0.79256180	0.96774194
1.00000000	1.00000000
