VARIABLES="X","Y","U","V","P"
ZONE  F=POINT
I=32, J=32
0.00000000	0.00000000	0.00000000	0.00000000	1.01528271
0.03225806	0.00000000	0.00000000	0.00000000	1.01516818
0.06451613	0.00000000	0.00000000	0.00000000	1.01484156
0.09677419	0.00000000	0.00000000	0.00000000	1.01438846
0.12903226	0.00000000	0.00000000	0.00000000	1.01392608
0.16129032	0.00000000	0.00000000	0.00000000	1.01353249
0.19354839	0.00000000	0.00000000	0.00000000	1.01325335
0.22580645	0.00000000	0.00000000	0.00000000	1.01311299
0.25806452	0.00000000	0.00000000	0.00000000	1.01312342
0.29032258	0.00000000	0.00000000	0.00000000	1.01329006
0.32258065	0.00000000	0.00000000	0.00000000	1.01361469
0.35483871	0.00000000	0.00000000	0.00000000	1.01409599
0.38709677	0.00000000	0.00000000	0.00000000	1.01472868
0.41935484	0.00000000	0.00000000	0.00000000	1.01550180
0.45161290	0.00000000	0.00000000	0.00000000	1.01639671
0.48387097	0.00000000	0.00000000	0.00000000	1.01738562
0.51612903	0.00000000	0.00000000	0.00000000	1.01843084
0.54838710	0.00000000	0.00000000	0.00000000	1.01948540
0.58064516	0.00000000	0.00000000	0.00000000	1.02049520
0.61290323	0.00000000	0.00000000	0.00000000	1.02140270
0.64516129	0.00000000	0.00000000	0.00000000	1.02215209
0.67741935	0.00000000	0.00000000	0.00000000	1.02269531
0.70967742	0.00000000	0.00000000	0.00000000	1.02299826
0.74193548	0.00000000	0.00000000	0.00000000	1.02304628
0.77419355	0.00000000	0.00000000	0.00000000	1.02284804
0.80645161	0.00000000	0.00000000	0.00000000	1.02243724
0.83870968	0.00000000	0.00000000	0.00000000	1.02187192
0.87096774	0.00000000	0.00000000	0.00000000	1.02123167
0.90322581	0.00000000	0.00000000	0.00000000	1.02061287
0.93548387	0.00000000	0.00000000	0.00000000	1.02012102
0.96774194	0.00000000	0.00000000	0.00000000	1.01985369
1.00000000	0.00000000	0.00000000	0.00000000	1.01978710
0.00000000	0.03225806	0.00000000	0.00000000	1.01539724
0.03225806	0.03225806	0.00005810	-0.00005741	1.01528145
0.06451613	0.03225806	-0.00028342	0.00021801	1.01497213
0.09677419	0.03225806	-0.00116605	0.00054954	1.01456268
0.12903226	0.03225806	-0.00255780	0.00083518	1.01414903
0.16129032	0.03225806	-0.00435847	0.00104752	1.01379755
0.19354839	0.03225806	-0.00645102	0.00118740	1.01354883
0.22580645	0.03225806	-0.00872322	0.00126404	1.01342566
0.25806452	0.03225806	-0.01107409	0.00128672	1.01344005
0.29032258	0.03225806	-0.01341293	0.00126187	1.01359800
0.32258065	0.03225806	-0.01565566	0.00119260	1.01390187
0.35483871	0.03225806	-0.01772120	0.00107951	1.01435096
0.38709677	0.03225806	-0.01952938	0.00092208	1.01494061
0.41935484	0.03225806	-0.02100098	0.00072023	1.01566072
0.45161290	0.03225806	-0.02206028	0.00047595	1.01649398
0.48387097	0.03225806	-0.02263955	0.00019448	1.01741448
0.51612903	0.03225806	-0.02268536	-0.00011472	1.01838713
0.54838710	0.03225806	-0.02216548	-0.00043764	1.01936823
0.58064516	0.03225806	-0.02107583	-0.00075610	1.02030748
0.61290323	0.03225806	-0.01944601	-0.00104871	1.02115152
0.64516129	0.03225806	-0.01734264	-0.00129277	1.02184873
0.67741935	0.03225806	-0.01486927	-0.00146653	1.02235483
0.70967742	0.03225806	-0.01216226	-0.00155195	1.02263875
0.74193548	0.03225806	-0.00938247	-0.00153724	1.02268757
0.77419355	0.03225806	-0.00670305	-0.00141907	1.02251012
0.80645161	0.03225806	-0.00429412	-0.00120389	1.02213825
0.83870968	0.03225806	-0.00230578	-0.00090872	1.02162588
0.87096774	0.03225806	-0.00084990	-0.00056208	1.02104587
0.90322581	0.03225806	0.00001933	-0.00020727	1.02048491
0.93548387	0.03225806	0.00032889	0.00008825	1.02003609
0.96774194	0.03225806	0.00022009	0.00021348	1.01978597
1.00000000	0.03225806	0.00000000	0.00000000	1.01972046
0.00000000	0.06451613	0.00000000	0.00000000	1.01572919
0.03225806	0.06451613	-0.00023096	0.00028342	1.01558813
0.06451613	0.06451613	-0.00127336	0.00122415	1.01526907
0.09677419	0.06451613	-0.00321368	0.00227438	1.01490801
0.12903226	0.06451613	-0.00597650	0.00319242	1.01456226
0.16129032	0.06451613	-0.00940522	0.00389322	1.01427471
0.19354839	0.06451613	-0.01331479	0.00436475	1.01407384
0.22580645	0.06451613	-0.01751986	0.00462308	1.01397712
0.25806452	0.06451613	-0.02184588	0.00468972	1.01399488
0.29032258	0.06451613	-0.02613028	0.00458157	1.01413323
0.32258065	0.06451613	-0.03021939	0.00430827	1.01439547
0.35483871	0.06451613	-0.03396482	0.00387372	1.01478224
0.38709677	0.06451613	-0.03722173	0.00327978	1.01529067
0.41935484	0.06451613	-0.03985013	0.00253090	1.01591297
0.45161290	0.06451613	-0.04171961	0.00163857	1.01663490
0.48387097	0.06451613	-0.04271707	0.00062508	1.01743447
0.51612903	0.06451613	-0.04275654	-0.00047407	1.01828141
0.54838710	0.06451613	-0.04179004	-0.00160953	1.01913765
0.58064516	0.06451613	-0.03981782	-0.00271948	1.01995908
0.61290323	0.06451613	-0.03689655	-0.00373318	1.02069871
0.64516129	0.06451613	-0.03314374	-0.00457674	1.02131101
0.67741935	0.06451613	-0.02873700	-0.00518038	1.02175701
0.70967742	0.06451613	-0.02390709	-0.00548679	1.02200956
0.74193548	0.06451613	-0.01892449	-0.00545921	1.02205779
0.77419355	0.06451613	-0.01407955	-0.00508835	1.02191006
0.80645161	0.06451613	-0.00965768	-0.00439726	1.02159475
0.83870968	0.06451613	-0.00591106	-0.00344422	1.02115871
0.87096774	0.06451613	-0.00302873	-0.00232512	1.02066341
0.90322581	0.06451613	-0.00110624	-0.00117879	1.02017945
0.93548387	0.06451613	-0.00011508	-0.00020075	1.01977963
0.96774194	0.06451613	0.00012874	0.00032889	1.01953154
1.00000000	0.06451613	0.00000000	0.00000000	1.01945331
0.00000000	0.09677419	0.00000000	0.00000000	1.01619951
0.03225806	0.09677419	-0.00061667	0.00121595	1.01599978
0.06451613	0.09677419	-0.00250796	0.00320072	1.01560373
0.09677419	0.09677419	-0.00560635	0.00525268	1.01522869
0.12903226	0.09677419	-0.00975102	0.00702672	1.01490093
0.16129032	0.09677419	-0.01472584	0.00838581	1.01464111
0.19354839	0.09677419	-0.02029330	0.00930205	1.01446338
0.22580645	0.09677419	-0.02621598	0.00979513	1.01437688
0.25806452	0.09677419	-0.03226620	0.00989714	1.01438785
0.29032258	0.09677419	-0.03822758	0.00963538	1.01450102
0.32258065	0.09677419	-0.04389276	0.00902714	1.01472019
0.35483871	0.09677419	-0.04906078	0.00808185	1.01504773
0.38709677	0.09677419	-0.05353668	0.00680738	1.01548338
0.41935484	0.09677419	-0.05713428	0.00521812	1.01602265
0.45161290	0.09677419	-0.05968282	0.00334289	1.01665507
0.48387097	0.09677419	-0.06103665	0.00123141	1.01736277
0.51612903	0.09677419	-0.06108725	-0.00104175	1.01811967
0.54838710	0.09677419	-0.05977607	-0.00337637	1.01889172
0.58064516	0.09677419	-0.05710660	-0.00564958	1.01963840
0.61290323	0.09677419	-0.05315392	-0.00772279	1.02031563
0.64516129	0.09677419	-0.04806996	-0.00945232	1.02087992
0.67741935	0.09677419	-0.04208278	-0.01070318	1.02129344
0.70967742	0.09677419	-0.03548854	-0.01136445	1.02152920
0.74193548	0.09677419	-0.02863546	-0.01136479	1.02157551
0.77419355	0.09677419	-0.02189969	-0.01068588	1.02143884
0.80645161	0.09677419	-0.01565436	-0.00937237	1.02114432
0.83870968	0.09677419	-0.01023388	-0.00753767	1.02073371
0.87096774	0.09677419	-0.00589634	-0.00536691	1.02026101
0.90322581	0.09677419	-0.00278740	-0.00312092	1.01978659
0.93548387	0.09677419	-0.00090883	-0.00114673	1.01937061
0.96774194	0.09677419	-0.00009501	0.00009840	1.01906720
1.00000000	0.09677419	0.00000000	0.00000000	1.01894986
0.00000000	0.12903226	0.00000000	0.00000000	1.01668507
0.03225806	0.12903226	-0.00101001	0.00279137	1.01641252
0.06451613	0.12903226	-0.00378494	0.00621383	1.01590708
0.09677419	0.12903226	-0.00806930	0.00951744	1.01548187
0.12903226	0.12903226	-0.01358776	0.01231191	1.01513879
0.16129032	0.12903226	-0.02005186	0.01443550	1.01487901
0.19354839	0.12903226	-0.02717274	0.01585488	1.01470270
0.22580645	0.12903226	-0.03467042	0.01659597	1.01461006
0.25806452	0.12903226	-0.04227741	0.01670132	1.01460237
0.29032258	0.12903226	-0.04973792	0.01620812	1.01468252
0.32258065	0.12903226	-0.05680504	0.01514147	1.01485477
0.35483871	0.12903226	-0.06323874	0.01351764	1.01512357
0.38709677	0.12903226	-0.06880634	0.01135328	1.01549195
0.41935484	0.12903226	-0.07328660	0.00867704	1.01595941
0.45161290	0.12903226	-0.07647740	0.00554093	1.01651981
0.48387097	0.12903226	-0.07820675	0.00202951	1.01715952
0.51612903	0.12903226	-0.07834583	-0.00173464	1.01785620
0.54838710	0.12903226	-0.07682306	-0.00559018	1.01857866
0.58064516	0.12903226	-0.07363745	-0.00934162	1.01928800
0.61290323	0.12903226	-0.06886972	-0.01276983	1.01994036
0.64516129	0.12903226	-0.06268913	-0.01564789	1.02049113
0.67741935	0.12903226	-0.05535440	-0.01776180	1.02090018
0.70967742	0.12903226	-0.04720657	-0.01893411	1.02113741
0.74193548	0.12903226	-0.03865276	-0.01904806	1.02118767
0.77419355	0.12903226	-0.03014008	-0.01806945	1.02105389
0.80645161	0.12903226	-0.02212065	-0.01606308	1.02075772
0.83870968	0.12903226	-0.01501009	-0.01320225	1.02033720
0.87096774	0.12903226	-0.00914358	-0.00977159	1.01984204
0.90322581	0.12903226	-0.00473480	-0.00616629	1.01932719
0.93548387	0.12903226	-0.00184360	-0.00289315	1.01884622
0.96774194	0.12903226	-0.00035837	-0.00057994	1.01844549
1.00000000	0.12903226	0.00000000	0.00000000	1.01827037
0.00000000	0.16129032	0.00000000	0.00000000	1.01708515
0.03225806	0.16129032	-0.00138297	0.00500089	1.01673655
0.06451613	0.16129032	-0.00501950	0.01026001	1.01611019
0.09677419	0.16129032	-0.01046555	0.01505549	1.01561628
0.12903226	0.16129032	-0.01731983	0.01900929	1.01523713
0.16129032	0.16129032	-0.02521284	0.02197080	1.01495718
0.19354839	0.16129032	-0.03380244	0.02392060	1.01476402
0.22580645	0.16129032	-0.04277049	0.02489980	1.01464945
0.25806452	0.16129032	-0.05181839	0.02496464	1.01461009
0.29032258	0.16129032	-0.06066182	0.02416301	1.01464725
0.32258065	0.16129032	-0.06902605	0.02252796	1.01476596
0.35483871	0.16129032	-0.07664326	0.02008315	1.01497331
0.38709677	0.16129032	-0.08325321	0.01685523	1.01527624
0.41935484	0.16129032	-0.08860761	0.01288918	1.01567891
0.45161290	0.16129032	-0.09247824	0.00826305	1.01618007
0.48387097	0.16129032	-0.09466819	0.00309984	1.01677060
0.51612903	0.16129032	-0.09502551	-0.00242545	1.01743180
0.54838710	0.16129032	-0.09345800	-0.00808475	1.01813461
0.58064516	0.16129032	-0.08994816	-0.01360293	1.01884044
0.61290323	0.16129032	-0.08456652	-0.01867110	1.01950369
0.64516129	0.16129032	-0.07748171	-0.02296764	1.02007601
0.67741935	0.16129032	-0.06896483	-0.02618575	1.02051196
0.70967742	0.16129032	-0.05938584	-0.02806609	1.02077523
0.74193548	0.16129032	-0.04919942	-0.02843127	1.02084434
0.77419355	0.16129032	-0.03891898	-0.02721799	1.02071659
0.80645161	0.16129032	-0.02907881	-0.02450237	1.02040922
0.83870968	0.16129032	-0.02018697	-0.02051474	1.01995725
0.87096774	0.16129032	-0.01267398	-0.01564219	1.01940847
0.90322581	0.16129032	-0.00684474	-0.01042090	1.01881664
0.93548387	0.16129032	-0.00284188	-0.00552316	1.01823436
0.96774194	0.16129032	-0.00062879	-0.00174520	1.01770686
1.00000000	0.16129032	0.00000000	0.00000000	1.01746184
0.00000000	0.19354839	0.00000000	0.00000000	1.01731722
0.03225806	0.19354839	-0.00172740	0.00781087	1.01689483
0.06451613	0.19354839	-0.00617518	0.01529641	1.01614755
0.09677419	0.19354839	-0.01272404	0.02181778	1.01557743
0.12903226	0.19354839	-0.02084809	0.02705920	1.01515014
0.16129032	0.19354839	-0.03009512	0.03091811	1.01483551
0.19354839	0.19354839	-0.04006975	0.03341253	1.01461011
0.22580645	0.19354839	-0.05041901	0.03461192	1.01445849
0.25806452	0.19354839	-0.06081962	0.03459265	1.01437344
0.29032258	0.19354839	-0.07096736	0.03341578	1.01435535
0.32258065	0.19354839	-0.08056916	0.03112291	1.01441073
0.35483871	0.19354839	-0.08933883	0.02774480	1.01454997
0.38709677	0.19354839	-0.09699668	0.02331763	1.01478467
0.41935484	0.19354839	-0.10327324	0.01790207	1.01512441
0.45161290	0.19354839	-0.10791684	0.01160151	1.01557358
0.48387097	0.19354839	-0.11070439	0.00457678	1.01612820
0.51612903	0.19354839	-0.11145490	-0.00294483	1.01677351
0.54838710	0.19354839	-0.11004504	-0.01066752	1.01748255
0.58064516	0.19354839	-0.10642595	-0.01823310	1.01821640
0.61290323	0.19354839	-0.10063994	-0.02523628	1.01892633
0.64516129	0.19354839	-0.09283540	-0.03124958	1.01955813
0.67741935	0.19354839	-0.08327715	-0.03585767	1.02005823
0.70967742	0.19354839	-0.07234889	-0.03869951	1.02038077
0.74193548	0.19354839	-0.06054419	-0.03951492	1.02049461
0.77419355	0.19354839	-0.04844268	-0.03819007	1.02038851
0.80645161	0.19354839	-0.03667058	-0.03479509	1.02007348
0.83870968	0.19354839	-0.02584727	-0.02960708	1.01958129
0.87096774	0.19354839	-0.01652415	-0.02311382	1.01895956
0.90322581	0.19354839	-0.00912526	-0.01599840	1.01826447
0.93548387	0.19354839	-0.00390090	-0.00910910	1.01755286
0.96774194	0.19354839	-0.00090449	-0.00342182	1.01687530
1.00000000	0.19354839	0.00000000	0.00000000	1.01655076
0.00000000	0.22580645	0.00000000	0.00000000	1.01731111
0.03225806	0.22580645	-0.00204014	0.01117607	1.01682009
0.06451613	0.22580645	-0.00723263	0.02125664	1.01595816
0.09677419	0.22580645	-0.01480123	0.02972841	1.01531087
0.12903226	0.22580645	-0.02410469	0.03638037	1.01482881
0.16129032	0.22580645	-0.03461239	0.04119245	1.01446878
0.19354839	0.22580645	-0.04587889	0.04424449	1.01419771
0.22580645	0.22580645	-0.05752050	0.04564967	1.01399410
0.25806452	0.22580645	-0.06919506	0.04551298	1.01384796
0.29032258	0.22580645	-0.08058569	0.04391254	1.01375969
0.32258065	0.22580645	-0.09138916	0.04089944	1.01373806
0.35483871	0.22580645	-0.10130885	0.03651066	1.01379764
0.38709677	0.22580645	-0.11005248	0.03078964	1.01395552
0.41935484	0.22580645	-0.11733415	0.02380935	1.01422771
0.45161290	0.22580645	-0.12288029	0.01569420	1.01462527
0.48387097	0.22580645	-0.12643924	0.00663789	1.01515047
0.51612903	0.22580645	-0.12779412	-0.00308480	1.01579349
0.54838710	0.22580645	-0.12677887	-0.01311370	1.01653018
0.58064516	0.22580645	-0.12329719	-0.02300802	1.01732140
0.61290323	0.22580645	-0.11734354	-0.03226165	1.01811467
0.64516129	0.22580645	-0.10902446	-0.04033043	1.01884824
0.67741935	0.22580645	-0.09857733	-0.04667225	1.01945762
0.70967742	0.22580645	-0.08638207	-0.05079906	1.01988373
0.74193548	0.22580645	-0.07296056	-0.05233749	1.02008152
0.77419355	0.22580645	-0.05895827	-0.05109159	1.02002719
0.80645161	0.22580645	-0.04510488	-0.04709778	1.01972246
0.83870968	0.22580645	-0.03215419	-0.04066117	1.01919449
0.87096774	0.22580645	-0.02080980	-0.03236420	1.01849148
0.90322581	0.22580645	-0.01164871	-0.02304416	1.01767504
0.93548387	0.22580645	-0.00505796	-0.01374393	1.01681106
0.96774194	0.22580645	-0.00119794	-0.00564610	1.01596114
1.00000000	0.22580645	0.00000000	0.00000000	1.01554689
0.00000000	0.25806452	0.00000000	0.00000000	1.01700550
0.03225806	0.25806452	-0.00231811	0.01504350	1.01645270
0.06451613	0.25806452	-0.00817646	0.02805750	1.01548606
0.09677419	0.25806452	-0.01666237	0.03868984	1.01476437
0.12903226	0.25806452	-0.02703289	0.04687036	1.01422406
0.16129032	0.25806452	-0.03868747	0.05269232	1.01381000
0.19354839	0.25806452	-0.05113646	0.05632065	1.01348065
0.22580645	0.25806452	-0.06397071	0.05792809	1.01320960
0.25806452	0.25806452	-0.07683496	0.05765784	1.01298508
0.29032258	0.25806452	-0.08940642	0.05560989	1.01280838
0.32258065	0.25806452	-0.10137895	0.05184607	1.01269141
0.35483871	0.25806452	-0.11245279	0.04640812	1.01265374
0.38709677	0.25806452	-0.12232950	0.03934293	1.01271902
0.41935484	0.25806452	-0.13071132	0.03072987	1.01291086
0.45161290	0.25806452	-0.13730473	0.02070661	1.01324848
0.48387097	0.25806452	-0.14182782	0.00949062	1.01374207
0.51612903	0.25806452	-0.14402184	-0.00260520	1.01438856
0.54838710	0.25806452	-0.14366728	-0.01516445	1.01516823
0.58064516	0.25806452	-0.14060474	-0.02766844	1.01604293
0.61290323	0.25806452	-0.13476058	-0.03950902	1.01695666
0.64516129	0.25806452	-0.12617591	-0.05001579	1.01783909
0.67741935	0.25806452	-0.11503576	-0.05850005	1.01861218
0.70967742	0.25806452	-0.10169341	-0.06431629	1.01919944
0.74193548	0.25806452	-0.08668248	-0.06693873	1.01953662
0.77419355	0.25806452	-0.07070864	-0.06604574	1.01958178
0.80645161	0.25806452	-0.05461368	-0.06159917	1.01932248
0.83870968	0.25806452	-0.03930972	-0.05390216	1.01877826
0.87096774	0.25806452	-0.02568868	-0.04361930	1.01799745
0.90322581	0.25806452	-0.01452189	-0.03175023	1.01704927
0.93548387	0.25806452	-0.00637072	-0.01955986	1.01601291
0.96774194	0.25806452	-0.00152788	-0.00847979	1.01496626
1.00000000	0.25806452	0.00000000	0.00000000	1.01444969
0.00000000	0.29032258	0.00000000	0.00000000	1.01634658
0.03225806	0.29032258	-0.00255716	0.01935253	1.01574015
0.06451613	0.29032258	-0.00899067	0.03560090	1.01468116
0.09677419	0.29032258	-0.01827367	0.04858483	1.01388991
0.12903226	0.29032258	-0.02957769	0.05840547	1.01328943
0.16129032	0.29032258	-0.04224317	0.06529603	1.01281355
0.19354839	0.29032258	-0.05574378	0.06952773	1.01241326
0.22580645	0.29032258	-0.06965099	0.07134817	1.01205814
0.25806452	0.29032258	-0.08360236	0.07094870	1.01173548
0.29032258	0.29032258	-0.09727554	0.06845653	1.01144820
0.32258065	0.29032258	-0.11036841	0.06394581	1.01121211
0.35483871	0.29032258	-0.12258518	0.05746122	1.01105261
0.38709677	0.29032258	-0.13362790	0.04904817	1.01100091
0.41935484	0.29032258	-0.14319250	0.03878458	1.01108968
0.45161290	0.29032258	-0.15096899	0.02681069	1.01134814
0.48387097	0.29032258	-0.15664589	0.01335500	1.01179674
0.51612903	0.29032258	-0.15991950	-0.00124534	1.01244186
0.54838710	0.29032258	-0.16050904	-0.01653081	1.01327101
0.58064516	0.29032258	-0.15817877	-0.03191472	1.01424947
0.61290323	0.29032258	-0.15276781	-0.04669047	1.01531927
0.64516129	0.29032258	-0.14422693	-0.06005525	1.01640143
0.67741935	0.29032258	-0.13265975	-0.07115476	1.01740220
0.70967742	0.29032258	-0.11836272	-0.07915233	1.01822321
0.74193548	0.29032258	-0.10185500	-0.08332226	1.01877451
0.77419355	0.29032258	-0.08388639	-0.08316039	1.01898839
0.80645161	0.29032258	-0.06541131	-0.07849669	1.01883105
0.83870968	0.29032258	-0.04752070	-0.06958618	1.01830897
0.87096774	0.29032258	-0.03133395	-0.05715204	1.01746827
0.90322581	0.29032258	-0.01786714	-0.04236212	1.01638677
0.93548387	0.29032258	-0.00790623	-0.02673794	1.01516076
0.96774194	0.29032258	-0.00191563	-0.01201681	1.01388957
1.00000000	0.29032258	0.00000000	0.00000000	1.01325479
0.00000000	0.32258065	0.00000000	0.00000000	1.01528843
0.03225806	0.32258065	-0.00275221	0.02403417	1.01463757
0.06451613	0.32258065	-0.00965806	0.04377401	1.01350039
0.09677419	0.32258065	-0.01960059	0.05927685	1.01264562
0.12903226	0.32258065	-0.03168344	0.07083987	1.01198368
0.16129032	0.32258065	-0.04520002	0.07885841	1.01143831
0.19354839	0.32258065	-0.05959552	0.08372846	1.01095383
0.22580645	0.32258065	-0.07442830	0.08578666	1.01049652
0.25806452	0.32258065	-0.08933451	0.08528239	1.01005330
0.29032258	0.32258065	-0.10399829	0.08237594	1.00962920
0.32258065	0.32258065	-0.11812822	0.07715570	1.00924441
0.35483871	0.32258065	-0.13143973	0.06966761	1.00893082
0.38709677	0.32258065	-0.14364283	0.05995025	1.00872821
0.41935484	0.32258065	-0.15443429	0.04807096	1.00867978
0.45161290	0.32258065	-0.16349386	0.03416000	1.00882693
0.48387097	0.32258065	-0.17048491	0.01844113	1.00920327
0.51612903	0.32258065	-0.17506029	0.00125795	1.00982825
0.54838710	0.32258065	-0.17687527	-0.01690519	1.01070068
0.58064516	0.32258065	-0.17560934	-0.03540967	1.01179331
0.61290323	0.32258065	-0.17099858	-0.05346086	1.01304941
0.64516129	0.32258065	-0.16287929	-0.07012385	1.01438293
0.67741935	0.32258065	-0.15124135	-0.08436426	1.01568336
0.70967742	0.32258065	-0.13628618	-0.09512103	1.01682610
0.74193548	0.32258065	-0.11847963	-0.10141506	1.01768799
0.77419355	0.32258065	-0.09858437	-0.10248943	1.01816571
0.80645161	0.32258065	-0.07765336	-0.09796486	1.01819362
0.83870968	0.32258065	-0.05696764	-0.08797953	1.01775640
0.87096774	0.32258065	-0.03791283	-0.07327286	1.01689268
0.90322581	0.32258065	-0.02180950	-0.05517794	1.01568814
0.93548387	0.32258065	-0.00973491	-0.03551137	1.01425937
0.96774194	0.32258065	-0.00238359	-0.01638602	1.01273247
1.00000000	0.32258065	0.00000000	0.00000000	1.01196013
0.00000000	0.35483871	0.00000000	0.00000000	1.01379415
0.03225806	0.35483871	-0.00289796	0.02901059	1.01310902
0.06451613	0.35483871	-0.01016159	0.05244929	1.01190927
0.09677419	0.35483871	-0.02060970	0.07061022	1.01099774
0.12903226	0.35483871	-0.03329612	0.08400490	1.01027337
0.16129032	0.35483871	-0.04747924	0.09320810	1.00965081
0.19354839	0.35483871	-0.06258376	0.09875601	1.00906840
0.22580645	0.35483871	-0.07816076	0.10108716	1.00848958
0.25806452	0.35483871	-0.09385019	0.10051869	1.00790114
0.29032258	0.35483871	-0.10934825	0.09725025	1.00731037
0.32258065	0.35483871	-0.12438065	0.09138725	1.00674197
0.35483871	0.35483871	-0.13868151	0.08297583	1.00623466
0.38709677	0.35483871	-0.15197729	0.07204273	1.00583755
0.41935484	0.35483871	-0.16397480	0.05863561	1.00560578
0.45161290	0.35483871	-0.17435309	0.04286132	1.00559519
0.48387097	0.35483871	-0.18275947	0.02492143	1.00585588
0.51612903	0.35483871	-0.18881099	0.00514502	1.00642471
0.54838710	0.35483871	-0.19210337	-0.01598176	1.00731714
0.58064516	0.35483871	-0.19223020	-0.03779141	1.00851912
0.61290323	0.35483871	-0.18881520	-0.05942052	1.00998064
0.64516129	0.35483871	-0.18155995	-0.07981249	1.01161243
0.67741935	0.35483871	-0.17030765	-0.09774787	1.01328818
0.70967742	0.35483871	-0.15511979	-0.11191405	1.01485395
0.74193548	0.35483871	-0.13635634	-0.12102407	1.01614541
0.77419355	0.35483871	-0.11474197	-0.12398666	1.01701157
0.80645161	0.35483871	-0.09139250	-0.12011342	1.01734072
0.83870968	0.35483871	-0.06777281	-0.10932670	1.01708230
0.87096774	0.35483871	-0.04556680	-0.09231017	1.01625797
0.90322581	0.35483871	-0.02646660	-0.07054004	1.01495759
0.93548387	0.35483871	-0.01192665	-0.04616386	1.01332020
0.96774194	0.35483871	-0.00295456	-0.02175173	1.01150448
1.00000000	0.35483871	0.00000000	0.00000000	1.01057208
0.00000000	0.38709677	0.00000000	0.00000000	1.01183756
0.03225806	0.38709677	-0.00298985	0.03419577	1.01112905
0.06451613	0.38709677	-0.01048699	0.06148575	1.00988344
0.09677419	0.38709677	-0.02127273	0.08241138	1.00892253
0.12903226	0.38709677	-0.03436884	0.09770941	1.00813531
0.16129032	0.38709677	-0.04900981	0.10814606	1.00742835
0.19354839	0.38709677	-0.06460678	0.11440999	1.00673464
0.22580645	0.38709677	-0.08070843	0.11705308	1.00601496
0.25806452	0.38709677	-0.09696286	0.11646988	1.00525580
0.29032258	0.38709677	-0.11308322	0.11290640	1.00446645
0.32258065	0.38709677	-0.12881840	0.10648897	1.00367580
0.35483871	0.38709677	-0.14392883	0.09726426	1.00292934
0.38709677	0.38709677	-0.15816678	0.08524354	1.00228588
0.41935484	0.38709677	-0.17126035	0.07044676	1.00181354
0.45161290	0.38709677	-0.18290083	0.05294467	1.00158470
0.48387097	0.38709677	-0.19273373	0.03289903	1.00166929
0.51612903	0.38709677	-0.20035476	0.01060184	1.00212646
0.54838710	0.38709677	-0.20531304	-0.01348597	1.00299452
0.58064516	0.38709677	-0.20712483	-0.03869783	1.00428014
0.61290323	0.38709677	-0.20530190	-0.06413111	1.00594781
0.64516129	0.38709677	-0.19939897	-0.08863141	1.00791202
0.67741935	0.38709677	-0.18908373	-0.11080442	1.01003485
0.70967742	0.38709677	-0.17422993	-0.12907234	1.01213243
0.74193548	0.38709677	-0.15502704	-0.14179288	1.01399236
0.77419355	0.38709677	-0.13208894	-0.14745328	1.01540244
0.80645161	0.38709677	-0.10652999	-0.14493402	1.01618660
0.83870968	0.38709677	-0.07996473	-0.13380522	1.01623972
0.87096774	0.38709677	-0.05439014	-0.11457908	1.01555089
0.90322581	0.38709677	-0.03193857	-0.08881809	1.01420589
0.93548387	0.38709677	-0.01454776	-0.05902341	1.01236624
0.96774194	0.38709677	-0.00365152	-0.02831267	1.01022932
1.00000000	0.38709677	0.00000000	0.00000000	1.00911199
0.00000000	0.41935484	0.00000000	0.00000000	1.00940477
0.03225806	0.41935484	-0.00302526	0.03949759	1.00868413
0.06451613	0.41935484	-0.01062596	0.07073216	1.00741003
0.09677419	0.41935484	-0.02157220	0.09449207	1.00640792
0.12903226	0.41935484	-0.03486977	0.11174198	1.00555865
0.16129032	0.41935484	-0.04973855	0.12344604	1.00476187
0.19354839	0.41935484	-0.06558150	0.13045463	1.00394563
0.22580645	0.41935484	-0.08194852	0.13344324	1.00306784
0.25806452	0.41935484	-0.09849918	0.13289348	1.00211418
0.29032258	0.41935484	-0.11496768	0.12910578	1.00109511
0.32258065	0.41935484	-0.13113162	0.12223286	1.00004296
0.35483871	0.41935484	-0.14678527	0.11232421	0.99900939
0.38709677	0.41935484	-0.16171669	0.09937425	0.99806268
0.41935484	0.41935484	-0.17568804	0.08336966	0.99728450
0.45161290	0.41935484	-0.18841870	0.06433470	0.99676533
0.48387097	0.41935484	-0.19957121	0.04237536	0.99659789
0.51612903	0.41935484	-0.20874109	0.01772433	0.99686829
0.54838710	0.41935484	-0.21545275	-0.00921169	0.99764444
0.58064516	0.41935484	-0.21916488	-0.03780255	0.99896233
0.61290323	0.41935484	-0.21929050	-0.06714638	1.00081108
0.64516129	0.41935484	-0.21523816	-0.09603066	1.00311931
0.67741935	0.41935484	-0.20648145	-0.12291691	1.00574604
0.70967742	0.41935484	-0.19266260	-0.14597074	1.00848132
0.74193548	0.41935484	-0.17372927	-0.16316507	1.01106095
0.77419355	0.41935484	-0.15009147	-0.17248371	1.01319836
0.80645161	0.41935484	-0.12276415	-0.17223763	1.01463141
0.83870968	0.41935484	-0.09343760	-0.16146656	1.01517440
0.87096774	0.41935484	-0.06440456	-0.14033633	1.01475995
0.90322581	0.41935484	-0.03829627	-0.11038241	1.01345442
0.93548387	0.41935484	-0.01765748	-0.07445091	1.01143794
0.96774194	0.41935484	-0.00449735	-0.03629949	1.00895224
1.00000000	0.41935484	0.00000000	0.00000000	1.00762409
0.00000000	0.45161290	0.00000000	0.00000000	1.00649528
0.03225806	0.45161290	-0.00300469	0.04482173	1.00577358
0.06451613	0.45161290	-0.01058001	0.08003270	1.00448839
0.09677419	0.45161290	-0.02150813	0.10665519	1.00345436
0.12903226	0.45161290	-0.03479169	0.12587576	1.00254638
0.16129032	0.45161290	-0.04964251	0.13885779	1.00165822
0.19354839	0.45161290	-0.06545879	0.14661995	1.00071307
0.22580645	0.45161290	-0.08179395	0.14997076	0.99966535
0.25806452	0.45161290	-0.09832152	0.14948903	0.99849884
0.29032258	0.45161290	-0.11480016	0.14553883	0.99722389
0.32258065	0.45161290	-0.13104129	0.13830657	0.99587499
0.35483871	0.45161290	-0.14688026	0.12784933	0.99450877
0.38709677	0.45161290	-0.16215094	0.11414630	0.99320222
0.41935484	0.45161290	-0.17666306	0.09714877	0.99205037
0.45161290	0.45161290	-0.19018163	0.07682784	0.99116253
0.48387097	0.45161290	-0.20240824	0.05322142	0.99065635
0.51612903	0.45161290	-0.21296467	0.02648338	0.99064879
0.54838710	0.45161290	-0.22138046	-0.00306218	0.99124360
0.58064516	0.45161290	-0.22708767	-0.03486008	0.99251501
0.61290323	0.45161290	-0.22942827	-0.06805783	0.99448844
0.64516129	0.45161290	-0.22768230	-0.10144046	0.99712010
0.67741935	0.45161290	-0.22112801	-0.13337997	1.00027950
0.70967742	0.45161290	-0.20914558	-0.16182452	1.00374067
0.74193548	0.45161290	-0.19137298	-0.18436401	1.00718986
0.77419355	0.45161290	-0.16790994	-0.19841840	1.01025656
0.80645161	0.45161290	-0.13954053	-0.20158788	1.01256965
0.83870968	0.45161290	-0.10790682	-0.19216481	1.01383019
0.87096774	0.45161290	-0.07552884	-0.16972041	1.01388029
0.90322581	0.45161290	-0.04556622	-0.13556518	1.01274121
0.93548387	0.45161290	-0.02130339	-0.09282233	1.01060098
0.96774194	0.45161290	-0.00551445	-0.04597016	1.00774926
1.00000000	0.45161290	0.00000000	0.00000000	1.00618529
0.00000000	0.48387097	0.00000000	0.00000000	1.00312223
0.03225806	0.48387097	-0.00293323	0.05007759	1.00240958
0.06451613	0.48387097	-0.01036463	0.08923560	1.00112987
0.09677419	0.48387097	-0.02110552	0.11870375	1.00007483
0.12903226	0.48387097	-0.03416267	0.13987636	0.99911578
0.16129032	0.48387097	-0.04874261	0.15411314	0.99814142
0.19354839	0.48387097	-0.06424008	0.16260607	0.99706957
0.22580645	0.48387097	-0.08021338	0.16630596	0.99584985
0.25806452	0.48387097	-0.09635214	0.16589968	0.99446243
0.29032258	0.48387097	-0.11244289	0.16182556	0.99291576
0.32258065	0.48387097	-0.12833573	0.15431296	0.99124465
0.35483871	0.48387097	-0.14391404	0.14343386	0.98950908
0.38709677	0.48387097	-0.15906711	0.12915705	0.98779342
0.41935484	0.48387097	-0.17366535	0.11140035	0.98620513
0.45161290	0.48387097	-0.18753702	0.09007988	0.98487216
0.48387097	0.48387097	-0.20044575	0.06515839	0.98393791
0.51612903	0.48387097	-0.21206865	0.03669654	0.98355274
0.54838710	0.48387097	-0.22197559	0.00491132	0.98386104
0.58064516	0.48387097	-0.22961211	-0.02975474	0.98498321
0.61290323	0.48387097	-0.23429075	-0.06655175	0.98699260
0.64516129	0.48387097	-0.23520015	-0.10433092	0.98988855
0.67741935	0.48387097	-0.23144530	-0.14145363	0.99356899
0.70967742	0.48387097	-0.22213779	-0.17572578	0.99780930
0.74193548	0.48387097	-0.20655526	-0.20440070	1.00225733
0.77419355	0.48387097	-0.18438158	-0.22431616	1.00645680
0.80645161	0.48387097	-0.15601287	-0.23224075	1.00990781
0.83870968	0.48387097	-0.12286429	-0.22547825	1.01216112
0.87096774	0.48387097	-0.08754358	-0.20267693	1.01292296
0.90322581	0.48387097	-0.05371154	-0.16460786	1.01213011
0.93548387	0.48387097	-0.02551503	-0.11450268	1.00995684
0.96774194	0.48387097	-0.00672398	-0.05760287	1.00673932
1.00000000	0.48387097	0.00000000	0.00000000	1.00491801
0.00000000	0.51612903	0.00000000	0.00000000	0.99931132
0.03225806	0.51612903	-0.00282201	0.05518636	0.99861581
0.06451613	0.51612903	-0.01001401	0.09820499	0.99735616
0.09677419	0.51612903	-0.02042257	0.13045322	0.99629340
0.12903226	0.51612903	-0.03305748	0.15351285	0.99529768
0.16129032	0.51612903	-0.04711781	0.16893520	0.99425276
0.19354839	0.51612903	-0.06199406	0.17809073	0.99306960
0.22580645	0.51612903	-0.07725067	0.18208282	0.99169073
0.25806452	0.51612903	-0.09259636	0.18171854	0.99009023
0.29032258	0.51612903	-0.10784980	0.17752241	0.98827220
0.32258065	0.51612903	-0.12290526	0.16977771	0.98626961
0.35483871	0.51612903	-0.13770096	0.15858071	0.98414389
0.38709677	0.51612903	-0.15219045	0.14389762	0.98198500
0.41935484	0.51612903	-0.16631653	0.12561868	0.97991140
0.45161290	0.51612903	-0.17998647	0.10360824	0.97806858
0.48387097	0.51612903	-0.19304723	0.07775304	0.97662526
0.51612903	0.51612903	-0.20525943	0.04801323	0.97576584
0.54838710	0.51612903	-0.21626964	0.01448128	0.97567794
0.58064516	0.51612903	-0.22558185	-0.02254492	0.97653372
0.61290323	0.51612903	-0.23253168	-0.06246979	0.97846431