VARIABLES="X","Y","U","V","P"
ZONE  F=POINT
I=32, J=32
0.00000000	0.00000000	0.00000000	0.00000000	1.01316008
0.03225806	0.00000000	0.00000000	0.00000000	1.01305782
0.06451613	0.00000000	0.00000000	0.00000000	1.01277241
0.09677419	0.00000000	0.00000000	0.00000000	1.01238661
0.12903226	0.00000000	0.00000000	0.00000000	1.01200459
0.16129032	0.00000000	0.00000000	0.00000000	1.01169488
0.19354839	0.00000000	0.00000000	0.00000000	1.01149730
0.22580645	0.00000000	0.00000000	0.00000000	1.01143270
0.25806452	0.00000000	0.00000000	0.00000000	1.01151076
0.29032258	0.00000000	0.00000000	0.00000000	1.01173496
0.32258065	0.00000000	0.00000000	0.00000000	1.01210520
0.35483871	0.00000000	0.00000000	0.00000000	1.01261846
0.38709677	0.00000000	0.00000000	0.00000000	1.01326820
0.41935484	0.00000000	0.00000000	0.00000000	1.01404308
0.45161290	0.00000000	0.00000000	0.00000000	1.01492544
0.48387097	0.00000000	0.00000000	0.00000000	1.01588998
0.51612903	0.00000000	0.00000000	0.00000000	1.01690316
0.54838710	0.00000000	0.00000000	0.00000000	1.01792363
0.58064516	0.00000000	0.00000000	0.00000000	1.01890386
0.61290323	0.00000000	0.00000000	0.00000000	1.01979316
0.64516129	0.00000000	0.00000000	0.00000000	1.02054195
0.67741935	0.00000000	0.00000000	0.00000000	1.02110684
0.70967742	0.00000000	0.00000000	0.00000000	1.02145598
0.74193548	0.00000000	0.00000000	0.00000000	1.02157399
0.77419355	0.00000000	0.00000000	0.00000000	1.02146556
0.80645161	0.00000000	0.00000000	0.00000000	1.02115741
0.83870968	0.00000000	0.00000000	0.00000000	1.02069823
0.87096774	0.00000000	0.00000000	0.00000000	1.02015677
0.90322581	0.00000000	0.00000000	0.00000000	1.01961835
0.93548387	0.00000000	0.00000000	0.00000000	1.01917883
0.96774194	0.00000000	0.00000000	0.00000000	1.01893077
1.00000000	0.00000000	0.00000000	0.00000000	1.01886534
0.00000000	0.03225806	0.00000000	0.00000000	1.01326235
0.03225806	0.03225806	0.00003618	-0.00003546	1.01315908
0.06451613	0.03225806	-0.00029501	0.00021567	1.01288924
0.09677419	0.03225806	-0.00110760	0.00050978	1.01254212
0.12903226	0.03225806	-0.00236776	0.00076033	1.01220285
0.16129032	0.03225806	-0.00398507	0.00094521	1.01192986
0.19354839	0.03225806	-0.00585589	0.00106599	1.01175870
0.22580645	0.03225806	-0.00788151	0.00113100	1.01170896
0.25806452	0.03225806	-0.00997334	0.00114851	1.01179043
0.29032258	0.03225806	-0.01205212	0.00112438	1.01200713
0.32258065	0.03225806	-0.01404484	0.00106167	1.01235951
0.35483871	0.03225806	-0.01588158	0.00096124	1.01284506
0.38709677	0.03225806	-0.01749351	0.00082286	1.01345778
0.41935484	0.03225806	-0.01881268	0.00064651	1.01418704
0.45161290	0.03225806	-0.01977378	0.00043366	1.01501620
0.48387097	0.03225806	-0.02031773	0.00018842	1.01592150
0.51612903	0.03225806	-0.02039681	-0.00008162	1.01687151
0.54838710	0.03225806	-0.01998061	-0.00036500	1.01782758
0.58064516	0.03225806	-0.01906213	-0.00064652	1.01874542
0.61290323	0.03225806	-0.01766295	-0.00090802	1.01957793
0.64516129	0.03225806	-0.01583660	-0.00112982	1.02027919
0.67741935	0.03225806	-0.01366920	-0.00129267	1.02080924
0.70967742	0.03225806	-0.01127659	-0.00138001	1.02113905
0.74193548	0.03225806	-0.00879780	-0.00138036	1.02125499
0.77419355	0.03225806	-0.00638490	-0.00128920	1.02116221
0.80645161	0.03225806	-0.00419011	-0.00111037	1.02088613
0.83870968	0.03225806	-0.00235091	-0.00085694	1.02047214
0.87096774	0.03225806	-0.00097401	-0.00055217	1.01998332
0.90322581	0.03225806	-0.00011768	-0.00023263	1.01949655
0.93548387	0.03225806	0.00022977	0.00004304	1.01909641
0.96774194	0.03225806	0.00018112	0.00017477	1.01886435
1.00000000	0.03225806	0.00000000	0.00000000	1.01879989
0.00000000	0.06451613	0.00000000	0.00000000	1.01355211
0.03225806	0.06451613	-0.00022517	0.00029499	1.01342686
0.06451613	0.06451613	-0.00118179	0.00114376	1.01314909
0.09677419	0.06451613	-0.00293302	0.00207272	1.01284498
0.12903226	0.06451613	-0.00540634	0.00287745	1.01256529
0.16129032	0.06451613	-0.00846173	0.00348811	1.01234814
0.19354839	0.06451613	-0.01193611	0.00389642	1.01221876
0.22580645	0.06451613	-0.01566711	0.00411743	1.01219236
0.25806452	0.06451613	-0.01950234	0.00417059	1.01227739
0.29032258	0.06451613	-0.02330048	0.00407149	1.01247802
0.32258065	0.06451613	-0.02692856	0.00382945	1.01279552
0.35483871	0.06451613	-0.03025874	0.00344865	1.01322849
0.38709677	0.06451613	-0.03316639	0.00293109	1.01377238
0.41935484	0.06451613	-0.03553072	0.00228026	1.01441837
0.45161290	0.06451613	-0.03723824	0.00150503	1.01515226
0.48387097	0.06451613	-0.03818894	0.00062302	1.01595346
0.51612903	0.06451613	-0.03830458	-0.00033713	1.01679450
0.54838710	0.06451613	-0.03753809	-0.00133468	1.01764141
0.58064516	0.06451613	-0.03588288	-0.00231768	1.01845516
0.61290323	0.06451613	-0.03338066	-0.00322554	1.01919417
0.64516129	0.06451613	-0.03012622	-0.00399376	1.01981796
0.67741935	0.06451613	-0.02626789	-0.00456001	1.02029138
0.70967742	0.06451613	-0.02200263	-0.00487141	1.02058916
0.74193548	0.06451613	-0.01756517	-0.00489170	1.02069986
0.77419355	0.06451613	-0.01321153	-0.00460770	1.02062870
0.80645161	0.06451613	-0.00919763	-0.00403399	1.02039854
0.83870968	0.06451613	-0.00575452	-0.00321610	1.02004903
0.87096774	0.06451613	-0.00306168	-0.00223324	1.01963358
0.90322581	0.06451613	-0.00121937	-0.00120378	1.01921491
0.93548387	0.06451613	-0.00022021	-0.00029880	1.01885902
0.96774194	0.06451613	0.00008082	0.00022976	1.01862836
1.00000000	0.06451613	0.00000000	0.00000000	1.01855168
0.00000000	0.09677419	0.00000000	0.00000000	1.01395232
0.03225806	0.09677419	-0.00056175	0.00114632	1.01377614
0.06451613	0.09677419	-0.00225735	0.00292349	1.01343174
0.09677419	0.09677419	-0.00501641	0.00473431	1.01311585
0.12903226	0.09677419	-0.00869351	0.00628902	1.01285211
0.16129032	0.09677419	-0.01309794	0.00747496	1.01265950
0.19354839	0.09677419	-0.01802180	0.00827136	1.01255107
0.22580645	0.09677419	-0.02325806	0.00869721	1.01253502
0.25806452	0.09677419	-0.02860880	0.00878185	1.01261628
0.29032258	0.09677419	-0.03388654	0.00855058	1.01279785
0.32258065	0.09677419	-0.03891221	0.00801992	1.01308127
0.35483871	0.09677419	-0.04351253	0.00719906	1.01346646
0.38709677	0.09677419	-0.04751905	0.00609483	1.01395087
0.41935484	0.09677419	-0.05076990	0.00471834	1.01452827
0.45161290	0.09677419	-0.05311474	0.00309187	1.01518746
0.48387097	0.09677419	-0.05442280	0.00125475	1.01591117
0.51612903	0.09677419	-0.05459315	-0.00073248	1.01667536
0.54838710	0.09677419	-0.05356614	-0.00278671	1.01744946
0.58064516	0.09677419	-0.05133472	-0.00480395	1.01819751
0.61290323	0.09677419	-0.04795381	-0.00666469	1.01888055
0.64516129	0.09677419	-0.04354618	-0.00824260	1.01946003
0.67741935	0.09677419	-0.03830317	-0.00941627	1.01990202
0.70967742	0.09677419	-0.03247893	-0.01008274	1.02018164
0.74193548	0.09677419	-0.02637734	-0.01017146	1.02028704
0.77419355	0.09677419	-0.02033155	-0.00965674	1.02022202
0.80645161	0.09677419	-0.01467708	-0.00856739	1.02000686
0.83870968	0.09677419	-0.00972026	-0.00699290	1.01967694
0.87096774	0.09677419	-0.00570450	-0.00508733	1.01927923
0.90322581	0.09677419	-0.00277728	-0.00307410	1.01886732
0.93548387	0.09677419	-0.00096085	-0.00125715	1.01849552
0.96774194	0.09677419	-0.00012993	-0.00004545	1.01821315
1.00000000	0.09677419	0.00000000	0.00000000	1.01809999
0.00000000	0.12903226	0.00000000	0.00000000	1.01435505
0.03225806	0.12903226	-0.00089856	0.00255232	1.01411625
0.06451613	0.12903226	-0.00335296	0.00559840	1.01367764
0.09677419	0.12903226	-0.00713329	0.00850887	1.01331847
0.12903226	0.12903226	-0.01199745	0.01095896	1.01304178
0.16129032	0.12903226	-0.01769382	0.01281639	1.01285009
0.19354839	0.12903226	-0.02397113	0.01405652	1.01274470
0.22580645	0.12903226	-0.03058622	0.01470440	1.01272617
0.25806452	0.12903226	-0.03730728	0.01479906	1.01279519
0.29032258	0.12903226	-0.04391307	0.01437488	1.01295299
0.32258065	0.12903226	-0.05019036	0.01345542	1.01320128
0.35483871	0.12903226	-0.05593157	0.01205549	1.01354146
0.38709677	0.12903226	-0.06093445	0.01018844	1.01397345
0.41935484	0.12903226	-0.06500471	0.00787593	1.01449413
0.45161290	0.12903226	-0.06796209	0.00515793	1.01509572
0.48387097	0.12903226	-0.06964948	0.00210141	1.01576433
0.51612903	0.12903226	-0.06994457	-0.00119380	1.01647901
0.54838710	0.12903226	-0.06877273	-0.00459312	1.01721155
0.58064516	0.12903226	-0.06611981	-0.00793001	1.01792743
0.61290323	0.12903226	-0.06204330	-0.01101410	1.01858798
0.64516129	0.12903226	-0.05667993	-0.01364441	1.01915384
0.67741935	0.12903226	-0.05024783	-0.01562727	1.01958928
0.70967742	0.12903226	-0.04304156	-0.01679724	1.01986698
0.74193548	0.12903226	-0.03541873	-0.01703909	1.01997224
0.77419355	0.12903226	-0.02777751	-0.01630796	1.01990601
0.80645161	0.12903226	-0.02052581	-0.01464528	1.01968566
0.83870968	0.12903226	-0.01404436	-0.01218868	1.01934344
0.87096774	0.12903226	-0.00864710	-0.00917623	1.01892261
0.90322581	0.12903226	-0.00454368	-0.00594744	1.01847197
0.93548387	0.12903226	-0.00180950	-0.00294615	1.01803980
0.96774194	0.12903226	-0.00036909	-0.00073109	1.01766820
1.00000000	0.12903226	0.00000000	0.00000000	1.01750225
0.00000000	0.16129032	0.00000000	0.00000000	1.01467486
0.03225806	0.16129032	-0.00121468	0.00449925	1.01437090
0.06451613	0.16129032	-0.00440445	0.00915820	1.01382838
0.09677419	0.16129032	-0.00918185	0.01337878	1.01340983
0.12903226	0.16129032	-0.01519910	0.01684953	1.01310239
0.16129032	0.16129032	-0.02213643	0.01944863	1.01289477
0.19354839	0.16129032	-0.02969762	0.02116374	1.01277775
0.22580645	0.16129032	-0.03760714	0.02203334	1.01274476
0.25806452	0.16129032	-0.04560659	0.02210868	1.01279235
0.29032258	0.16129032	-0.05345011	0.02143365	1.01292012
0.32258065	0.16129032	-0.06089994	0.02003841	1.01313008
0.35483871	0.16129032	-0.06772333	0.01794314	1.01342548
0.38709677	0.16129032	-0.07369217	0.01516796	1.01380917
0.41935484	0.16129032	-0.07858586	0.01174597	1.01428162
0.45161290	0.16129032	-0.08219782	0.00773662	1.01483888
0.48387097	0.16129032	-0.08434515	0.00323723	1.01547068
0.51612903	0.16129032	-0.08488113	-0.00160924	1.01615897
0.54838710	0.16129032	-0.08370925	-0.00661148	1.01687732
0.58064516	0.16129032	-0.08079779	-0.01153338	1.01759147
0.61290323	0.16129032	-0.07619340	-0.01610457	1.01826130
0.64516129	0.16129032	-0.07003159	-0.02003809	1.01884437
0.67741935	0.16129032	-0.06254216	-0.02305465	1.01930054
0.70967742	0.16129032	-0.05404709	-0.02491184	1.01959726
0.74193548	0.16129032	-0.04494883	-0.02543552	1.01971458
0.77419355	0.16129032	-0.03570745	-0.02454967	1.01964873
0.80645161	0.16129032	-0.02680703	-0.02230054	1.01941344
0.83870968	0.16129032	-0.01871329	-0.01887161	1.01903845
0.87096774	0.16129032	-0.01182720	-0.01458801	1.01856550
0.90322581	0.16129032	-0.00644114	-0.00991170	1.01804242
0.93548387	0.16129032	-0.00270509	-0.00543175	1.01751674
0.96774194	0.16129032	-0.00061059	-0.00185495	1.01702974
1.00000000	0.16129032	0.00000000	0.00000000	1.01680050
0.00000000	0.19354839	0.00000000	0.00000000	1.01484348
0.03225806	0.19354839	-0.00150633	0.00695675	1.01447615
0.06451613	0.19354839	-0.00538986	0.01356556	1.01382931
0.09677419	0.19354839	-0.01111778	0.01930349	1.01334468
0.12903226	0.19354839	-0.01823804	0.02391352	1.01299625
0.16129032	0.19354839	-0.02636108	0.02731489	1.01276095
0.19354839	0.19354839	-0.03514552	0.02952721	1.01262037
0.22580645	0.19354839	-0.04428607	0.03061336	1.01256171
0.25806452	0.19354839	-0.05350299	0.03064202	1.01257801
0.29032258	0.19354839	-0.06253280	0.02966822	1.01266768
0.32258065	0.19354839	-0.07112088	0.02772863	1.01283354
0.35483871	0.19354839	-0.07901679	0.02484770	1.01308115
0.38709677	0.19354839	-0.08597281	0.02105096	1.01341682
0.41935484	0.19354839	-0.09174635	0.01638157	1.01384524
0.45161290	0.19354839	-0.09610601	0.01091721	1.01436686
0.48387097	0.19354839	-0.09884131	0.00478472	1.01497550
0.51612903	0.19354839	-0.09977545	-0.00182971	1.01565629
0.54838710	0.19354839	-0.09878048	-0.00867646	1.01638445
0.58064516	0.19354839	-0.09579405	-0.01544586	1.01712535
0.61290323	0.19354839	-0.09083615	-0.02178030	1.01783622
0.64516129	0.19354839	-0.08402425	-0.02729566	1.01846960
0.67741935	0.19354839	-0.07558392	-0.03161177	1.01897845
0.70967742	0.19354839	-0.06585210	-0.03439058	1.01932217
0.74193548	0.19354839	-0.05526946	-0.03537874	1.01947263
0.77419355	0.19354839	-0.04435928	-0.03444976	1.01941891
0.80645161	0.19354839	-0.03369173	-0.03163945	1.01916961
0.83870968	0.19354839	-0.02383554	-0.02716852	1.01875191
0.87096774	0.19354839	-0.01530243	-0.02144838	1.01820765
0.90322581	0.19354839	-0.00849295	-0.01506955	1.01758704
0.93548387	0.19354839	-0.00365374	-0.00877671	1.01694167
0.96774194	0.19354839	-0.00085572	-0.00343619	1.01631790
1.00000000	0.19354839	0.00000000	0.00000000	1.01601670
0.00000000	0.22580645	0.00000000	0.00000000	1.01480370
0.03225806	0.22580645	-0.00177365	0.00988909	1.01437677
0.06451613	0.22580645	-0.00630120	0.01876964	1.01362995
0.09677419	0.22580645	-0.01291936	0.02622695	1.01307789
0.12903226	0.22580645	-0.02107890	0.03209282	1.01268292
0.16129032	0.22580645	-0.03032363	0.03635609	1.01241149
0.19354839	0.22580645	-0.04026921	0.03908871	1.01223719
0.22580645	0.22580645	-0.05058378	0.04039079	1.01214190
0.25806452	0.22580645	-0.06097091	0.04035540	1.01211591
0.29032258	0.22580645	-0.07115539	0.03905153	1.01215712
0.32258065	0.22580645	-0.08087232	0.03652239	1.01226974
0.35483871	0.22580645	-0.08985985	0.03279506	1.01246227
0.38709677	0.22580645	-0.09785603	0.02789750	1.01274521
0.41935484	0.22580645	-0.10459965	0.02187915	1.01312819
0.45161290	0.22580645	-0.10983527	0.01483158	1.01361697
0.48387097	0.22580645	-0.11332209	0.00690666	1.01421037
0.51612903	0.22580645	-0.11484663	-0.00167008	1.01489747
0.54838710	0.22580645	-0.11423883	-0.01059289	1.01565570
0.58064516	0.22580645	-0.11139105	-0.01947772	1.01645013
0.61290323	0.22580645	-0.10627907	-0.02787437	1.01723463
0.64516129	0.22580645	-0.09898311	-0.03529033	1.01795525
0.67741935	0.22580645	-0.08970611	-0.04122681	1.01855556
0.70967742	0.22580645	-0.07878505	-0.04522630	1.01898366
0.74193548	0.22580645	-0.06669067	-0.04692834	1.01919962
0.77419355	0.22580645	-0.05401064	-0.04612740	1.01918197
0.80645161	0.22580645	-0.04141337	-0.04282428	1.01893159
0.83870968	0.22580645	-0.02959307	-0.03726091	1.01847212
0.87096774	0.22580645	-0.01920186	-0.02993061	1.01784635
0.90322581	0.22580645	-0.01077987	-0.02156040	1.01710966
0.93548387	0.22580645	-0.00469691	-0.01306898	1.01632199
0.96774194	0.22580645	-0.00111805	-0.00550869	1.01554002
1.00000000	0.22580645	0.00000000	0.00000000	1.01515710
0.00000000	0.25806452	0.00000000	0.00000000	1.01450550
0.03225806	0.25806452	-0.00201644	0.01325794	1.01402376
0.06451613	0.25806452	-0.00713273	0.02471126	1.01318379
0.09677419	0.25806452	-0.01457020	0.03408118	1.01256589
0.12903226	0.25806452	-0.02369249	0.04131777	1.01212142
0.16129032	0.25806452	-0.03398296	0.04650518	1.01180719
0.19354839	0.25806452	-0.04501873	0.04978735	1.01158964
0.22580645	0.25806452	-0.05644547	0.05131505	1.01144618
0.25806452	0.25806452	-0.06795479	0.05121362	1.01136506
0.29032258	0.25806452	-0.07926525	0.04956962	1.01134437
0.32258065	0.25806452	-0.09010766	0.04643308	1.01139029
0.35483871	0.25806452	-0.10021476	0.04183140	1.01151499
0.38709677	0.25806452	-0.10931548	0.03579075	1.01173394
0.41935484	0.25806452	-0.11713358	0.02836080	1.01206278
0.45161290	0.25806452	-0.12339071	0.01963964	1.01251378
0.48387097	0.25806452	-0.12781369	0.00979608	1.01309221
0.51612903	0.25806452	-0.13014646	-0.00091298	1.01379265
0.54838710	0.25806452	-0.13016653	-0.01213205	1.01459608
0.58064516	0.25806452	-0.12770631	-0.02340563	1.01546820
0.61290323	0.25806452	-0.12267858	-0.03418824	1.01635970
0.64516129	0.25806452	-0.11510475	-0.04386862	1.01720905
0.67741935	0.25806452	-0.10514270	-0.05180983	1.01794805
0.70967742	0.25806452	-0.09310953	-0.05740601	1.01850980
0.74193548	0.25806452	-0.07949242	-0.06015315	1.01883794
0.77419355	0.25806452	-0.06494026	-0.05972707	1.01889558
0.80645161	0.25806452	-0.05022995	-0.05605702	1.01867184
0.83870968	0.25806452	-0.03620528	-0.04938003	1.01818430
0.87096774	0.25806452	-0.02369366	-0.04026158	1.01747647
0.90322581	0.25806452	-0.01341395	-0.02957450	1.01661102
0.93548387	0.25806452	-0.00589409	-0.01843853	1.01566014
0.96774194	0.25806452	-0.00141646	-0.00813310	1.01469548
1.00000000	0.25806452	0.00000000	0.00000000	1.01421832
0.00000000	0.29032258	0.00000000	0.00000000	1.01390419
0.03225806	0.29032258	-0.00223305	0.01702181	1.01337317
0.06451613	0.29032258	-0.00787658	0.03132339	1.01244843
0.09677419	0.29032258	-0.01605180	0.04278670	1.01176780
0.12903226	0.29032258	-0.02604664	0.05150557	1.01127202
0.16129032	0.29032258	-0.03729187	0.05768232	1.01090886
0.19354839	0.29032258	-0.04933174	0.06155121	1.01063823
0.22580645	0.29032258	-0.06179431	0.06332684	1.01043369
0.25806452	0.29032258	-0.07436413	0.06317516	1.01028204
0.29032258	0.29032258	-0.08675900	0.06120439	1.01018205
0.32258065	0.29032258	-0.09871134	0.05747190	1.01014251
0.35483871	0.29032258	-0.10995455	0.05200287	1.01017987
0.38709677	0.29032258	-0.12021415	0.04481632	1.01031549
0.41935484	0.29032258	-0.12920350	0.03595438	1.01057220
0.45161290	0.29032258	-0.13662407	0.02551168	1.01097047
0.48387097	0.29032258	-0.14217039	0.01366241	1.01152404
0.51612903	0.29032258	-0.14554024	0.00068275	1.01223535
0.54838710	0.29032258	-0.14645076	-0.01303304	1.01309139
0.58064516	0.29032258	-0.14466126	-0.02696566	1.01406059
0.61290323	0.29032258	-0.14000299	-0.04047593	1.01509166
0.64516129	0.29032258	-0.13241499	-0.05282622	1.01611534
0.67741935	0.29032258	-0.12198324	-0.06322203	1.01704959
0.70967742	0.29032258	-0.10897784	-0.07087658	1.01780840
0.74193548	0.29032258	-0.09387983	-0.07509761	1.01831312
0.77419355	0.29032258	-0.07738711	-0.07538987	1.01850479
0.80645161	0.29032258	-0.06038859	-0.07155926	1.01835441
0.83870968	0.29032258	-0.04389981	-0.06379720	1.01786890
0.87096774	0.29032258	-0.02896240	-0.05272195	1.01709066
0.90322581	0.29032258	-0.01652245	-0.03935997	1.01609069
0.93548387	0.29032258	-0.00731363	-0.02506647	1.01495698
0.96774194	0.29032258	-0.00177219	-0.01140279	1.01378083
1.00000000	0.29032258	0.00000000	0.00000000	1.01319332
0.00000000	0.32258065	0.00000000	0.00000000	1.01296013
0.03225806	0.32258065	-0.00242046	0.02113451	1.01238606
0.06451613	0.32258065	-0.00852200	0.03852999	1.01138608
0.09677419	0.32258065	-0.01734158	0.05225122	1.01064659
0.12903226	0.32258065	-0.02810340	0.06255783	1.01009803
0.16129032	0.32258065	-0.04019409	0.06979027	1.00967957
0.19354839	0.32258065	-0.05313115	0.07428978	1.00934507
0.22580645	0.32258065	-0.06653005	0.07634743	1.00906462
0.25806452	0.32258065	-0.08007323	0.07617831	1.00882394
0.29032258	0.32258065	-0.09348306	0.07391682	1.00862282
0.32258065	0.32258065	-0.10649962	0.06962862	1.00847297
0.35483871	0.32258065	-0.11886350	0.06333421	1.00839572
0.38709677	0.32258065	-0.13030355	0.05503970	1.00841913
0.41935484	0.32258065	-0.14052914	0.04477071	1.00857461
0.45161290	0.32258065	-0.14922697	0.03260653	1.00889277
0.48387097	0.32258065	-0.15606280	0.01871225	1.00939846
0.51612903	0.32258065	-0.16068880	0.00336739	1.01010527
0.54838710	0.32258065	-0.16275802	-0.01301104	1.01100987
0.58064516	0.32258065	-0.16194738	-0.02985339	1.01208698
0.61290323	0.32258065	-0.15799037	-0.04643451	1.01328619
0.64516129	0.32258065	-0.15071986	-0.06188837	1.01453169
0.67741935	0.32258065	-0.14011911	-0.07524698	1.01572643
0.70967742	0.32258065	-0.12637595	-0.08550943	1.01676113
0.74193548	0.32258065	-0.10993077	-0.09174388	1.01752791
0.77419355	0.32258065	-0.09150429	-0.09321830	1.01793672
0.80645161	0.32258065	-0.07208838	-0.08954432	1.01793116
0.83870968	0.32258065	-0.05288524	-0.08080622	1.01749978
0.87096774	0.32258065	-0.03519091	-0.06763893	1.01667940
0.90322581	0.32258065	-0.02023741	-0.05122327	1.01554898
0.93548387	0.32258065	-0.00902793	-0.03318880	1.01421542
0.96774194	0.32258065	-0.00220769	-0.01544673	1.01279460
1.00000000	0.32258065	0.00000000	0.00000000	1.01207680
0.00000000	0.35483871	0.00000000	0.00000000	1.01163938
0.03225806	0.35483871	-0.00257480	0.02554380	1.01102915
0.06451613	0.35483871	-0.00905637	0.04624449	1.00996447
0.09677419	0.35483871	-0.01841417	0.06236809	1.00917039
0.12903226	0.35483871	-0.02982062	0.07435807	1.00856755
0.16129032	0.35483871	-0.04262637	0.08271006	1.00808693
0.19354839	0.35483871	-0.05632795	0.08788716	1.00767665
0.22580645	0.35483871	-0.07053289	0.09026891	1.00730355
0.25806452	0.35483871	-0.08492610	0.09012817	1.00695233
0.29032258	0.35483871	-0.09923966	0.08763077	1.00662377
0.32258065	0.35483871	-0.11322739	0.08285233	1.00633265
0.35483871	0.35483871	-0.12664419	0.07580681	1.00610540
0.38709677	0.35483871	-0.13923024	0.06648196	1.00597750
0.41935484	0.35483871	-0.15069956	0.05487779	1.00599025
0.45161290	0.35483871	-0.16073284	0.04104534	1.00618650
0.48387097	0.35483871	-0.16897506	0.02512423	1.00660535
0.51612903	0.35483871	-0.17503899	0.00737798	1.00727567
0.54838710	0.35483871	-0.17851624	-0.01177445	1.00820873
0.58064516	0.35483871	-0.17899833	-0.03173332	1.00939093
0.61290323	0.35483871	-0.17611000	-0.05170345	1.01077757
0.64516129	0.35483871	-0.16955681	-0.07069747	1.01228970
0.67741935	0.35483871	-0.15918675	-0.08756593	1.01381577
0.70967742	0.35483871	-0.14506269	-0.10106493	1.01521991
0.74193548	0.35483871	-0.12753611	-0.10996927	1.01635733
0.77419355	0.35483871	-0.10730586	-0.11323226	1.01709558
0.80645161	0.35483871	-0.08543805	-0.11017831	1.01733775
0.83870968	0.35483871	-0.06332161	-0.10069466	1.01704194
0.87096774	0.35483871	-0.04254277	-0.08536978	1.01623106
0.90322581	0.35483871	-0.02468704	-0.06552295	1.01498911
0.93548387	0.35483871	-0.01111054	-0.04309618	1.01344420
0.96774194	0.35483871	-0.00274629	-0.02043072	1.01174240
1.00000000	0.35483871	0.00000000	0.00000000	1.01087076
0.00000000	0.38709677	0.00000000	0.00000000	1.00991490
0.03225806	0.38709677	-0.00269216	0.03019087	1.00927600
0.06451613	0.38709677	-0.00946738	0.05436935	1.00815802
0.09677419	0.38709677	-0.01924489	0.07301546	1.00731396
0.12903226	0.38709677	-0.03115663	0.08677001	1.00665537
0.16129032	0.38709677	-0.04452444	0.09629759	1.00610554
0.19354839	0.38709677	-0.05882859	0.10219630	1.00560705
0.22580645	0.38709677	-0.07367244	0.10494558	1.00512338
0.25806452	0.38709677	-0.08874722	0.10488507	1.00463796
0.29032258	0.38709677	-0.10379945	0.10221810	1.00415224
0.32258065	0.38709677	-0.11860263	0.09703314	1.00368369
0.35483871	0.38709677	-0.13293355	0.08933706	1.00326378
0.38709677	0.38709677	-0.14655297	0.07909507	1.00293576
0.41935484	0.38709677	-0.15919045	0.06627330	1.00275184
0.45161290	0.38709677	-0.17053297	0.05088202	1.00276919
0.48387097	0.38709677	-0.18021788	0.03301840	1.00304447
0.51612903	0.38709677	-0.18783135	0.01290857	1.00362651
0.54838710	0.38709677	-0.19291428	-0.00905170	1.00454733
0.58064516	0.38709677	-0.19497871	-0.03225963	1.00581208
0.61290323	0.38709677	-0.19353833	-0.05587603	1.00738918
0.64516129	0.38709677	-0.18815686	-0.07881162	1.00920279
0.67741935	0.38709677	-0.17851703	-0.09974110	1.01113032
0.70967742	0.38709677	-0.16450966	-0.11716007	1.01300811
0.74193548	0.38709677	-0.14633613	-0.12950071	1.01464724
0.77419355	0.38709677	-0.12460691	-0.13531635	1.01585964
0.80645161	0.38709677	-0.10040655	-0.13352856	1.01649051
0.83870968	0.38709677	-0.07528546	-0.12370150	1.01644966
0.87096774	0.38709677	-0.05114201	-0.10627350	1.01573202
0.90322581	0.38709677	-0.02998682	-0.08265550	1.01441958
0.93548387	0.38709677	-0.01363366	-0.05512954	1.01266227
0.96774194	0.38709677	-0.00341209	-0.02655727	1.01064249
1.00000000	0.38709677	0.00000000	0.00000000	1.00959051
0.00000000	0.41935484	0.00000000	0.00000000	1.00776792
0.03225806	0.41935484	-0.00276966	0.03501116	1.00710823
0.06451613	0.41935484	-0.00974597	0.06279722	1.00594894
0.09677419	0.41935484	-0.01981488	0.08405734	1.00505997
0.12903226	0.41935484	-0.03207754	0.09963761	1.00434479
0.16129032	0.41935484	-0.04583229	0.11038200	1.00371952
0.19354839	0.41935484	-0.06054631	0.11703516	1.00312121
0.22580645	0.41935484	-0.07582132	0.12018754	1.00250962
0.25806452	0.41935484	-0.09135777	0.12025517	1.00186624
0.29032258	0.41935484	-0.10692069	0.11748617	1.00119240
0.32258065	0.41935484	-0.12230900	0.11198643	1.00050749
0.35483871	0.41935484	-0.13732908	0.10375715	0.99984741
0.38709677	0.41935484	-0.15177244	0.09273887	0.99926304
0.41935484	0.41935484	-0.16539697	0.07885779	0.99881807
0.45161290	0.41935484	-0.17791145	0.06207277	0.99858564
0.48387097	0.41935484	-0.18896367	0.04242262	0.99864305
0.51612903	0.41935484	-0.19813292	0.02007438	0.99906395
0.54838710	0.41935484	-0.20492908	-0.00462709	0.99990787
0.58064516	0.41935484	-0.20880159	-0.03110926	1.00120736
0.61290323	0.41935484	-0.20916278	-0.05852529	1.00295379
0.64516129	0.41935484	-0.20543163	-0.08571877	1.00508422
0.67741935	0.41935484	-0.19710395	-0.11121313	1.00747266
0.70967742	0.41935484	-0.18385328	-0.13324582	1.00993034
0.74193548	0.41935484	-0.16566086	-0.14987202	1.01221946
0.77419355	0.41935484	-0.14296061	-0.15916184	1.01408268
0.80645161	0.41935484	-0.11676639	-0.15949975	1.01528597
0.83870968	0.41935484	-0.08872739	-0.14995920	1.01566604
0.87096774	0.41935484	-0.06104752	-0.13066841	1.01516778
0.90322581	0.41935484	-0.03622802	-0.10303130	1.01385747
0.93548387	0.41935484	-0.01666499	-0.06967091	1.01190418
0.96774194	0.41935484	-0.00422986	-0.03406437	1.00953264
1.00000000	0.41935484	0.00000000	0.00000000	1.00827204
0.00000000	0.45161290	0.00000000	0.00000000	1.00518908
0.03225806	0.45161290	-0.00280663	0.03993683	1.00451649
0.06451613	0.45161290	-0.00989002	0.07141457	1.00332804
0.09677419	0.45161290	-0.02011757	0.09534702	1.00240000
0.12903226	0.45161290	-0.03256639	0.11278742	1.00162909
0.16129032	0.45161290	-0.04651404	0.12476636	1.00092474
0.19354839	0.45161290	-0.06141571	0.13218532	1.00021820
0.22580645	0.45161290	-0.07687265	0.13575703	0.99946474
0.25806452	0.45161290	-0.09259659	0.13598444	0.99864280
0.29032258	0.45161290	-0.10837450	0.13316933	0.99775232
0.32258065	0.45161290	-0.12403605	0.12744152	0.99681331
0.35483871	0.45161290	-0.13942491	0.11880051	0.99586500
0.38709677	0.45161290	-0.15437385	0.10716296	0.99496509
0.41935484	0.45161290	-0.16868300	0.09241231	0.99418871
0.45161290	0.45161290	-0.18210077	0.07444873	0.99362589
0.48387097	0.45161290	-0.19430726	0.05323987	0.99337693
0.51612903	0.45161290	-0.20490061	0.02887399	0.99354465
0.54838710	0.45161290	-0.21338809	0.00161698	0.99422280
0.58064516	0.45161290	-0.21918499	-0.02802593	0.99548065
0.61290323	0.45161290	-0.22162647	-0.05924598	0.99734436
0.64516129	0.45161290	-0.22000011	-0.09087045	0.99977715
0.67741935	0.45161290	-0.21360876	-0.12131945	1.00266223
0.70967742	0.45161290	-0.20187407	-0.14860314	1.00579444
0.74193548	0.45161290	-0.18448719	-0.17039337	1.00888752
0.77419355	0.45161290	-0.16160093	-0.18421083	1.01160367
0.80645161	0.45161290	-0.13403387	-0.18776179	1.01360604
0.83870968	0.45161290	-0.10342195	-0.17942036	1.01462610
0.87096774	0.45161290	-0.07222031	-0.15877286	1.01452625
0.90322581	0.45161290	-0.04346198	-0.12703802	1.01333357
0.93548387	0.45161290	-0.02026313	-0.08712770	1.01122729
0.96774194	0.45161290	-0.00522467	-0.04322226	1.00847904
1.00000000	0.45161290	0.00000000	0.00000000	1.00698162
0.00000000	0.48387097	0.00000000	0.00000000	1.00217909
0.03225806	0.48387097	-0.00280602	0.04490118	1.00150082
0.06451613	0.48387097	-0.00990862	0.08010815	1.00029487
0.09677419	0.48387097	-0.02016630	0.10673370	0.99933489
0.12903226	0.48387097	-0.03263407	0.12603408	0.99851245
0.16129032	0.48387097	-0.04656772	0.13923132	0.99773056
0.19354839	0.48387097	-0.06140945	0.14739376	0.99691395
0.22580645	0.48387097	-0.07676007	0.15136841	0.99601208
0.25806452	0.48387097	-0.09234415	0.15175702	0.99499866
0.29032258	0.48387097	-0.10797385	0.14892564	0.99387045
0.32258065	0.48387097	-0.12351471	0.14303684	0.99264632
0.35483871	0.48387097	-0.13885513	0.13409495	0.99136716
0.38709677	0.48387097	-0.15387949	0.12199695	0.99009619
0.41935484	0.48387097	-0.16844418	0.10658471	0.98891910
0.45161290	0.48387097	-0.18235579	0.08769703	0.98794282
0.48387097	0.48387097	-0.19535056	0.06522246	0.98729196
0.51612903	0.48387097	-0.20707507	0.03915522	0.98710158
0.54838710	0.48387097	-0.21706900	0.00965729	0.98750531
0.58064516	0.48387097	-0.22475239	-0.02287088	0.98861801
0.61290323	0.48387097	-0.22942240	-0.05771016	0.99051305
0.64516129	0.48387097	-0.23026801	-0.09373647	0.99319566
0.67741935	0.48387097	-0.22641547	-0.12933916	0.99657594
0.70967742	0.48387097	-0.21702138	-0.16236738	1.00044824
0.74193548	0.48387097	-0.20143023	-0.19014517	1.00448680
0.77419355	0.48387097	-0.17940515	-0.20961515	1.00826878
0.80645161	0.48387097	-0.15141502	-0.21767872	1.01133246
0.83870968	0.48387097	-0.11891361	-0.21177276	1.01326615
0.87096774	0.48387097	-0.08448353	-0.19062838	1.01380531
0.90322581	0.48387097	-0.05167921	-0.15498848	1.01290051
0.93548387	0.48387097	-0.02447068	-0.10790821	1.01072185
0.96774194	0.48387097	-0.00642114	-0.05432750	1.00758819
1.00000000	0.48387097	0.00000000	0.00000000	1.00582841
0.00000000	0.51612903	0.00000000	0.00000000	0.99874828
0.03225806	0.51612903	-0.00277607	0.04984545	0.99807003
0.06451613	0.51612903	-0.00982708	0.08877484	0.99685674
0.09677419	0.51612903	-0.02000307	0.11807247	0.99587398
0.12903226	0.51612903	-0.03233130	0.13918883	0.99500985
0.16129032	0.51612903	-0.04604020	0.15354174	0.99416069
0.19354839	0.51612903	-0.06055585	0.16237768	0.99324322
0.22580645	0.51612903	-0.07547830	0.16669174	0.99219885
0.25806452	0.51612903	-0.09054702	0.16719822	0.99099423
0.29032258	0.51612903	-0.10560322	0.16433988	0.98962062
0.32258065	0.51612903	-0.12055383	0.15832281	0.98809357
0.35483871	0.51612903	-0.13533928	0.14916529	0.98645362
0.38709677	0.51612903	-0.14990527	0.13675201	0.98476773
0.41935484	0.51612903	-0.16417749	0.12088862	0.98313069
0.45161290	0.51612903	-0.17803815	0.10135512	0.98166541
0.48387097	0.51612903	-0.19130281	0.07795916	0.98052073
0.51612903	0.51612903	-0.20369664	0.05059243	0.97986538
0.54838710	0.51612903	-0.21482969	0.01929431	0.97987645
0.58064516	0.51612903	-0.22417259	-0.01567252	0.98072127
0.61290323	0.51612903	-0.23103621	-0.05373036	0.98253166