VARIABLES="X","Y","U","V","P"
ZONE  F=POINT
I=32, J=32
0.00000000	0.00000000	0.00000000	0.00000000	1.00169367
0.03225806	0.00000000	0.00000000	0.00000000	1.00161817
0.06451613	0.00000000	0.00000000	0.00000000	1.00143686
0.09677419	0.00000000	0.00000000	0.00000000	1.00124016
0.12903226	0.00000000	0.00000000	0.00000000	1.00110012
0.16129032	0.00000000	0.00000000	0.00000000	1.00105715
0.19354839	0.00000000	0.00000000	0.00000000	1.00113009
0.22580645	0.00000000	0.00000000	0.00000000	1.00132471
0.25806452	0.00000000	0.00000000	0.00000000	1.00163946
0.29032258	0.00000000	0.00000000	0.00000000	1.00206887
0.32258065	0.00000000	0.00000000	0.00000000	1.00260535
0.35483871	0.00000000	0.00000000	0.00000000	1.00324000
0.38709677	0.00000000	0.00000000	0.00000000	1.00396275
0.41935484	0.00000000	0.00000000	0.00000000	1.00476221
0.45161290	0.00000000	0.00000000	0.00000000	1.00562539
0.48387097	0.00000000	0.00000000	0.00000000	1.00653737
0.51612903	0.00000000	0.00000000	0.00000000	1.00748113
0.54838710	0.00000000	0.00000000	0.00000000	1.00843746
0.58064516	0.00000000	0.00000000	0.00000000	1.00938509
0.61290323	0.00000000	0.00000000	0.00000000	1.01030098
0.64516129	0.00000000	0.00000000	0.00000000	1.01116096
0.67741935	0.00000000	0.00000000	0.00000000	1.01194050
0.70967742	0.00000000	0.00000000	0.00000000	1.01261594
0.74193548	0.00000000	0.00000000	0.00000000	1.01316591
0.77419355	0.00000000	0.00000000	0.00000000	1.01357325
0.80645161	0.00000000	0.00000000	0.00000000	1.01382724
0.83870968	0.00000000	0.00000000	0.00000000	1.01392646
0.87096774	0.00000000	0.00000000	0.00000000	1.01388230
0.90322581	0.00000000	0.00000000	0.00000000	1.01372380
0.93548387	0.00000000	0.00000000	0.00000000	1.01350394
0.96774194	0.00000000	0.00000000	0.00000000	1.01330660
1.00000000	0.00000000	0.00000000	0.00000000	1.01322618
0.00000000	0.03225806	0.00000000	0.00000000	1.00176917
0.03225806	0.03225806	-0.00004655	0.00004697	1.00169324
0.06451613	0.03225806	-0.00041208	0.00025355	1.00152298
0.09677419	0.03225806	-0.00111074	0.00045019	1.00135095
0.12903226	0.03225806	-0.00207608	0.00059274	1.00123462
0.16129032	0.03225806	-0.00322142	0.00067856	1.00120858
0.19354839	0.03225806	-0.00446521	0.00071696	1.00129035
0.22580645	0.03225806	-0.00573964	0.00071901	1.00148630
0.25806452	0.03225806	-0.00699161	0.00069415	1.00179609
0.29032258	0.03225806	-0.00818058	0.00064940	1.00221547
0.32258065	0.03225806	-0.00927541	0.00058948	1.00273792
0.35483871	0.03225806	-0.01025142	0.00051729	1.00335533
0.38709677	0.03225806	-0.01108810	0.00043450	1.00405821
0.41935484	0.03225806	-0.01176750	0.00034206	1.00483561
0.45161290	0.03225806	-0.01227350	0.00024066	1.00567488
0.48387097	0.03225806	-0.01259154	0.00013106	1.00656143
0.51612903	0.03225806	-0.01270892	0.00001430	1.00747859
0.54838710	0.03225806	-0.01261548	-0.00010803	1.00840759
0.58064516	0.03225806	-0.01230447	-0.00023366	1.00932768
0.61290323	0.03225806	-0.01177386	-0.00035952	1.01021653
0.64516129	0.03225806	-0.01102779	-0.00048153	1.01105077
0.67741935	0.03225806	-0.01007820	-0.00059454	1.01180695
0.70967742	0.03225806	-0.00894670	-0.00069224	1.01246263
0.74193548	0.03225806	-0.00766639	-0.00076711	1.01299788
0.77419355	0.03225806	-0.00628361	-0.00081053	1.01339710
0.80645161	0.03225806	-0.00485913	-0.00081305	1.01365115
0.83870968	0.03225806	-0.00346837	-0.00076499	1.01375979
0.87096774	0.03225806	-0.00219980	-0.00065777	1.01373470
0.90322581	0.03225806	-0.00114964	-0.00048736	1.01360289
0.93548387	0.03225806	-0.00040936	-0.00026405	1.01341062
0.96774194	0.03225806	-0.00003778	-0.00004141	1.01322612
1.00000000	0.03225806	0.00000000	0.00000000	1.01314575
0.00000000	0.06451613	0.00000000	0.00000000	1.00195230
0.03225806	0.06451613	-0.00025682	0.00041206	1.00186252
0.06451613	0.06451613	-0.00107895	0.00106418	1.00168865
0.09677419	0.06451613	-0.00242242	0.00166399	1.00154391
0.12903226	0.06451613	-0.00418009	0.00211066	1.00145979
0.16129032	0.06451613	-0.00622187	0.00238912	1.00145881
0.19354839	0.06451613	-0.00842144	0.00251821	1.00155425
0.22580645	0.06451613	-0.01066913	0.00252639	1.00175212
0.25806452	0.06451613	-0.01287547	0.00244093	1.00205337
0.29032258	0.06451613	-0.01496978	0.00228378	1.00245553
0.32258065	0.06451613	-0.01689638	0.00207084	1.00295375
0.35483871	0.06451613	-0.01861065	0.00181268	1.00354135
0.38709677	0.06451613	-0.02007556	0.00151607	1.00421000
0.41935484	0.06451613	-0.02125929	0.00118539	1.00494964
0.45161290	0.06451613	-0.02213383	0.00082403	1.00574835
0.48387097	0.06451613	-0.02267458	0.00043542	1.00659225
0.51612903	0.06451613	-0.02286072	0.00002394	1.00746534
0.54838710	0.06451613	-0.02267618	-0.00040446	1.00834961
0.58064516	0.06451613	-0.02211118	-0.00084161	1.00922521
0.61290323	0.06451613	-0.02116421	-0.00127668	1.01007085
0.64516129	0.06451613	-0.01984442	-0.00169566	1.01086447
0.67741935	0.06451613	-0.01817436	-0.00208109	1.01158414
0.70967742	0.06451613	-0.01619282	-0.00241181	1.01220925
0.74193548	0.06451613	-0.01395769	-0.00266308	1.01272195
0.77419355	0.06451613	-0.01154831	-0.00280726	1.01310888
0.80645161	0.06451613	-0.00906670	-0.00281524	1.01336292
0.83870968	0.06451613	-0.00663674	-0.00265932	1.01348518
0.87096774	0.06451613	-0.00439980	-0.00231873	1.01348663
0.90322581	0.06451613	-0.00250469	-0.00179044	1.01338941
0.93548387	0.06451613	-0.00108907	-0.00111186	1.01322679
0.96774194	0.06451613	-0.00024920	-0.00040936	1.01304009
1.00000000	0.06451613	0.00000000	0.00000000	1.01294623
0.00000000	0.09677419	0.00000000	0.00000000	1.00215539
0.03225806	0.09677419	-0.00047004	0.00112590	1.00203543
0.06451613	0.09677419	-0.00173868	0.00241914	1.00182305
0.09677419	0.09677419	-0.00366831	0.00355132	1.00167210
0.12903226	0.09677419	-0.00610246	0.00439217	1.00159543
0.16129032	0.09677419	-0.00887743	0.00491990	1.00160418
0.19354839	0.09677419	-0.01183825	0.00516421	1.00170574
0.22580645	0.09677419	-0.01484908	0.00517302	1.00190372
0.25806452	0.09677419	-0.01779694	0.00499478	1.00219865
0.29032258	0.09677419	-0.02059059	0.00467029	1.00258864
0.32258065	0.09677419	-0.02315691	0.00423035	1.00306987
0.35483871	0.09677419	-0.02543657	0.00369647	1.00363673
0.38709677	0.09677419	-0.02738024	0.00308314	1.00428193
0.41935484	0.09677419	-0.02894575	0.00240032	1.00499634
0.45161290	0.09677419	-0.03009640	0.00165595	1.00576883
0.48387097	0.09677419	-0.03080042	0.00085794	1.00658622
0.51612903	0.09677419	-0.03103135	0.00001590	1.00743311
0.54838710	0.09677419	-0.03076925	-0.00085757	1.00829205
0.58064516	0.09677419	-0.03000256	-0.00174564	1.00914366
0.61290323	0.09677419	-0.02873066	-0.00262628	1.00996714
0.64516129	0.09677419	-0.02696687	-0.00347137	1.01074091
0.67741935	0.09677419	-0.02474182	-0.00424614	1.01144356
0.70967742	0.09677419	-0.02210709	-0.00490891	1.01205505
0.74193548	0.09677419	-0.01913844	-0.00541162	1.01255821
0.77419355	0.09677419	-0.01593837	-0.00570151	1.01294024
0.80645161	0.09677419	-0.01263694	-0.00572461	1.01319440
0.83870968	0.09677419	-0.00938984	-0.00543189	1.01332131
0.87096774	0.09677419	-0.00637228	-0.00478982	1.01332980
0.90322581	0.09677419	-0.00376741	-0.00379808	1.01323667
0.93548387	0.09677419	-0.00174874	-0.00251954	1.01306468
0.96774194	0.09677419	-0.00045934	-0.00113047	1.01283760
1.00000000	0.09677419	0.00000000	0.00000000	1.01271311
0.00000000	0.12903226	0.00000000	0.00000000	1.00230602
0.03225806	0.12903226	-0.00064763	0.00215073	1.00215321
0.06451613	0.12903226	-0.00230893	0.00426243	1.00189168
0.09677419	0.12903226	-0.00475421	0.00602776	1.00171825
0.12903226	0.12903226	-0.00777194	0.00731978	1.00163417
0.16129032	0.12903226	-0.01116433	0.00812489	1.00164198
0.19354839	0.12903226	-0.01475266	0.00848984	1.00174364
0.22580645	0.12903226	-0.01838243	0.00848507	1.00193986
0.25806452	0.12903226	-0.02192493	0.00818243	1.00223002
0.29032258	0.12903226	-0.02527532	0.00764374	1.00261216
0.32258065	0.12903226	-0.02834876	0.00691680	1.00308297
0.35483871	0.12903226	-0.03107585	0.00603601	1.00363767
0.38709677	0.12903226	-0.03339856	0.00502525	1.00426985
0.41935484	0.12903226	-0.03526722	0.00390154	1.00497125
0.45161290	0.12903226	-0.03663864	0.00267869	1.00573153
0.48387097	0.12903226	-0.03747550	0.00137037	1.00653810
0.51612903	0.12903226	-0.03774675	-0.00000724	1.00737608
0.54838710	0.12903226	-0.03742895	-0.00143326	1.00822826
0.58064516	0.12903226	-0.03650848	-0.00288020	1.00907539
0.61290323	0.12903226	-0.03498450	-0.00431237	1.00989655
0.64516129	0.12903226	-0.03287249	-0.00568450	1.01066989
0.67741935	0.12903226	-0.03020833	-0.00694087	1.01137358
0.70967742	0.12903226	-0.02705238	-0.00801519	1.01198710
0.74193548	0.12903226	-0.02349326	-0.00883180	1.01249270
0.77419355	0.12903226	-0.01965044	-0.00930876	1.01287700
0.80645161	0.12903226	-0.01567483	-0.00936376	1.01313244
0.83870968	0.12903226	-0.01174625	-0.00892398	1.01325837
0.87096774	0.12903226	-0.00806673	-0.00794115	1.01326132
0.90322581	0.12903226	-0.00484953	-0.00641398	1.01315408
0.93548387	0.12903226	-0.00230486	-0.00441992	1.01295297
0.96774194	0.12903226	-0.00062778	-0.00215809	1.01267298
1.00000000	0.12903226	0.00000000	0.00000000	1.01251487
0.00000000	0.16129032	0.00000000	0.00000000	1.00235906
0.03225806	0.16129032	-0.00078912	0.00343482	1.00217577
0.06451613	0.16129032	-0.00278305	0.00652571	1.00186507
0.09677419	0.16129032	-0.00567543	0.00901432	1.00166280
0.12903226	0.16129032	-0.00920119	0.01080228	1.00156356
0.16129032	0.16129032	-0.01312747	0.01190061	1.00156405
0.19354839	0.16129032	-0.01725255	0.01238230	1.00166198
0.22580645	0.16129032	-0.02140607	0.01234528	1.00185545
0.25806452	0.16129032	-0.02544755	0.01188766	1.00214255
0.29032258	0.16129032	-0.02926290	0.01109412	1.00252097
0.32258065	0.16129032	-0.03275955	0.01003087	1.00298767
0.35483871	0.16129032	-0.03586146	0.00874627	1.00353852
0.38709677	0.16129032	-0.03850465	0.00727450	1.00416787
0.41935484	0.16129032	-0.04063400	0.00564039	1.00486826
0.45161290	0.16129032	-0.04220120	0.00386423	1.00563006
0.48387097	0.16129032	-0.04316403	0.00196605	1.00644124
0.51612903	0.16129032	-0.04348682	-0.00003066	1.00728721
0.54838710	0.16129032	-0.04314190	-0.00209585	1.00815081
0.58064516	0.16129032	-0.04211216	-0.00419010	1.00901247
0.61290323	0.16129032	-0.04039444	-0.00626227	1.00985063
0.64516129	0.16129032	-0.03800379	-0.00824754	1.01064244
0.67741935	0.16129032	-0.03497820	-0.01006625	1.01136481
0.70967742	0.16129032	-0.03138357	-0.01162398	1.01199573
0.74193548	0.16129032	-0.02731802	-0.01281356	1.01251587
0.77419355	0.16129032	-0.02291496	-0.01351993	1.01291030
0.80645161	0.16129032	-0.01834372	-0.01362880	1.01316992
0.83870968	0.16129032	-0.01380682	-0.01303999	1.01329254
0.87096774	0.16129032	-0.00953326	-0.01168654	1.01328293
0.90322581	0.16129032	-0.00576827	-0.00955995	1.01315168
0.93548387	0.16129032	-0.00276128	-0.00674128	1.01291248
0.96774194	0.16129032	-0.00075729	-0.00343533	1.01257781
1.00000000	0.16129032	0.00000000	0.00000000	1.01238792
0.00000000	0.19354839	0.00000000	0.00000000	1.00228692
0.03225806	0.19354839	-0.00090419	0.00493376	1.00207639
0.06451613	0.19354839	-0.00318246	0.00914873	1.00171978
0.09677419	0.19354839	-0.00646759	0.01244589	1.00148709
0.12903226	0.19354839	-0.01044585	0.01477180	1.00136931
0.16129032	0.19354839	-0.01484982	0.01617625	1.00135933
0.19354839	0.19354839	-0.01945461	0.01676843	1.00145175
0.22580645	0.19354839	-0.02407470	0.01668006	1.00164261
0.25806452	0.19354839	-0.02855965	0.01603925	1.00192885
0.29032258	0.19354839	-0.03278846	0.01495573	1.00230782
0.32258065	0.19354839	-0.03666339	0.01351535	1.00277667
0.35483871	0.19354839	-0.04010407	0.01178110	1.00333180
0.38709677	0.19354839	-0.04304249	0.00979778	1.00396830
0.41935484	0.19354839	-0.04541941	0.00759808	1.00467946
0.45161290	0.19354839	-0.04718208	0.00520872	1.00545632
0.48387097	0.19354839	-0.04828334	0.00265599	1.00628733
0.51612903	0.19354839	-0.04868211	-0.00002938	1.00715807
0.54838710	0.19354839	-0.04834496	-0.00280792	1.00805119
0.58064516	0.19354839	-0.04724901	-0.00562766	1.00894643
0.61290323	0.19354839	-0.04538598	-0.00842074	1.00982107
0.64516129	0.19354839	-0.04276723	-0.01110074	1.01065057
0.67741935	0.19354839	-0.03942966	-0.01356109	1.01140972
0.70967742	0.19354839	-0.03544174	-0.01567537	1.01207409
0.74193548	0.19354839	-0.03090904	-0.01730040	1.01262185
0.77419355	0.19354839	-0.02597809	-0.01828305	1.01303563
0.80645161	0.19354839	-0.02083744	-0.01847190	1.01330428
0.83870968	0.19354839	-0.01571493	-0.01773443	1.01342401
0.87096774	0.19354839	-0.01087069	-0.01597969	1.01339855
0.90322581	0.19354839	-0.00658644	-0.01318596	1.01323804
0.93548387	0.19354839	-0.00315331	-0.00943090	1.01295646
0.96774194	0.19354839	-0.00086190	-0.00491936	1.01256776
1.00000000	0.19354839	0.00000000	0.00000000	1.01234825
0.00000000	0.22580645	0.00000000	0.00000000	1.00207191
0.03225806	0.22580645	-0.00100373	0.00661727	1.00183657
0.06451613	0.22580645	-0.00353611	0.01208909	1.00143705
0.09677419	0.22580645	-0.00717998	0.01627770	1.00117412
0.12903226	0.22580645	-0.01157783	0.01918450	1.00103671
0.16129032	0.22580645	-0.01642871	0.02090935	1.00101516
0.19354839	0.22580645	-0.02148444	0.02160717	1.00110185
0.22580645	0.22580645	-0.02654442	0.02145032	1.00129123
0.25806452	0.22580645	-0.03144888	0.02060141	1.00157935
0.29032258	0.22580645	-0.03607117	0.01919785	1.00196329
0.32258065	0.22580645	-0.04030994	0.01734647	1.00244046
0.35483871	0.22580645	-0.04408204	0.01512536	1.00300778
0.38709677	0.22580645	-0.04731674	0.01258984	1.00366111
0.41935484	0.22580645	-0.04995152	0.00977997	1.00439449
0.45161290	0.22580645	-0.05192941	0.00672815	1.00519968
0.48387097	0.22580645	-0.05319785	0.00346608	1.00606557
0.51612903	0.22580645	-0.05370901	0.00003095	1.00697786
0.54838710	0.22580645	-0.05342159	-0.00352895	1.00791880
0.58064516	0.22580645	-0.05230403	-0.00714908	1.00886717
0.61290323	0.22580645	-0.05033936	-0.01074405	1.00979855
0.64516129	0.22580645	-0.04753138	-0.01420386	1.01068607
0.67741935	0.22580645	-0.04391211	-0.01739174	1.01150152
0.70967742	0.22580645	-0.03954958	-0.02014460	1.01221707
0.74193548	0.22580645	-0.03455518	-0.02227721	1.01280734
0.77419355	0.22580645	-0.02908897	-0.02359153	1.01325169
0.80645161	0.22580645	-0.02336160	-0.02389195	1.01353630
0.83870968	0.22580645	-0.01763146	-0.02300674	1.01365576
0.87096774	0.22580645	-0.01219657	-0.02081503	1.01361339
0.90322581	0.22580645	-0.00738188	-0.01727732	1.01342032
0.93548387	0.22580645	-0.00352399	-0.01246580	1.01309299
0.96774194	0.22580645	-0.00095658	-0.00658863	1.01264934
1.00000000	0.22580645	0.00000000	0.00000000	1.01240063
0.00000000	0.25806452	0.00000000	0.00000000	1.00170112
0.03225806	0.25806452	-0.00109738	0.00846986	1.00144203
0.06451613	0.25806452	-0.00387210	0.01532497	1.00100099
0.09677419	0.25806452	-0.00786240	0.02048759	1.00070806
0.12903226	0.25806452	-0.01266969	0.02402051	1.00055083
0.16129032	0.25806452	-0.01796021	0.02608285	1.00051773
0.19354839	0.25806452	-0.02346227	0.02688414	1.00059942
0.22580645	0.25806452	-0.02895999	0.02664449	1.00078909
0.25806452	0.25806452	-0.03428455	0.02556599	1.00108211
0.29032258	0.25806452	-0.03930441	0.02381678	1.00147546
0.32258065	0.25806452	-0.04391569	0.02152621	1.00196683
0.35483871	0.25806452	-0.04803367	0.01878790	1.00255383
0.38709677	0.25806452	-0.05158589	0.01566726	1.00323312
0.41935484	0.25806452	-0.05450720	0.01221075	1.00399965
0.45161290	0.25806452	-0.05673647	0.00845504	1.00484597
0.48387097	0.25806452	-0.05821506	0.00443558	1.00576152
0.51612903	0.25806452	-0.05888686	0.00019436	1.00673213
0.54838710	0.25806452	-0.05870014	-0.00421290	1.00773959
0.58064516	0.25806452	-0.05761114	-0.00870989	1.00876146
0.61290323	0.25806452	-0.05558983	-0.01319340	1.00977124
0.64516129	0.25806452	-0.05262764	-0.01752799	1.01073900
0.67741935	0.25806452	-0.04874691	-0.02154288	1.01163263
0.70967742	0.25806452	-0.04401136	-0.02503230	1.01241979
0.74193548	0.25806452	-0.03853609	-0.02776101	1.01307034
0.77419355	0.25806452	-0.03249537	-0.02947662	1.01355923
0.80645161	0.25806452	-0.02612587	-0.02992942	1.01386923
0.83870968	0.25806452	-0.01972373	-0.02889946	1.01399301
0.87096774	0.25806452	-0.01363431	-0.02622926	1.01393395
0.90322581	0.25806452	-0.00823536	-0.02185853	1.01370528
0.93548387	0.25806452	-0.00391597	-0.01585619	1.01332756
0.96774194	0.25806452	-0.00105468	-0.00844335	1.01282449
1.00000000	0.25806452	0.00000000	0.00000000	1.01254462
0.00000000	0.29032258	0.00000000	0.00000000	1.00116319
0.03225806	0.29032258	-0.00119294	0.01048935	1.00087998
0.06451613	0.29032258	-0.00421474	0.01885410	1.00039676
0.09677419	0.29032258	-0.00855931	0.02507527	1.00007339
0.12903226	0.29032258	-0.01378695	0.02928229	0.99989622
0.16129032	0.29032258	-0.01953063	0.03170193	0.99985200
0.19354839	0.29032258	-0.02549456	0.03260695	0.99992982
0.22580645	0.29032258	-0.03144725	0.03227258	1.00012177
0.25806452	0.29032258	-0.03721103	0.03094582	1.00042268
0.29032258	0.29032258	-0.04265020	0.02882899	1.00082951
0.32258065	0.29032258	-0.04765939	0.02607572	1.00134040
0.35483871	0.29032258	-0.05215345	0.02279555	1.00195375
0.38709677	0.29032258	-0.05605931	0.01906336	1.00266724
0.41935484	0.29032258	-0.05930995	0.01493054	1.00347693
0.45161290	0.29032258	-0.06184031	0.01043601	1.00437636
0.48387097	0.29032258	-0.06358511	0.00561647	1.00535577
0.51612903	0.29032258	-0.06447840	0.00051603	1.00640130
0.54838710	0.29032258	-0.06445525	-0.00480468	1.00749434
0.58064516	0.29032258	-0.06345568	-0.01025938	1.00861116
0.61290323	0.29032258	-0.06143133	-0.01572754	1.00972282
0.64516129	0.29032258	-0.05835502	-0.02104677	1.01079569
0.67741935	0.29032258	-0.05423299	-0.02600802	1.01179278
0.70967742	0.29032258	-0.04911890	-0.03035541	1.01267587
0.74193548	0.29032258	-0.04312795	-0.03379319	1.01340858
0.77419355	0.29032258	-0.03644830	-0.03600175	1.01395993
0.80645161	0.29032258	-0.02934692	-0.03666358	1.01430804
0.83870968	0.29032258	-0.02216657	-0.03549830	1.01444303
0.87096774	0.29032258	-0.01531252	-0.03230340	1.01436840
0.90322581	0.29032258	-0.00922934	-0.02699565	1.01410040
0.93548387	0.29032258	-0.00437087	-0.01964647	1.01366512
0.96774194	0.29032258	-0.00116817	-0.01050459	1.01309363
1.00000000	0.29032258	0.00000000	0.00000000	1.01277785
0.00000000	0.32258065	0.00000000	0.00000000	1.00044630
0.03225806	0.32258065	-0.00129660	0.01268459	1.00013731
0.06451613	0.32258065	-0.00458414	0.02269132	0.99960925
0.09677419	0.32258065	-0.00930831	0.03005979	0.99925395
0.12903226	0.32258065	-0.01498553	0.03499182	0.99905633
0.16129032	0.32258065	-0.02121344	0.03779045	0.99900132
0.19354839	0.32258065	-0.02767091	0.03880074	0.99907637
0.22580645	0.32258065	-0.03411041	0.03836095	0.99927241
0.25806452	0.32258065	-0.04034575	0.03676893	0.99958375
0.29032258	0.32258065	-0.04623792	0.03426513	1.00000741
0.32258065	0.32258065	-0.05168140	0.03102945	1.00054211
0.35483871	0.32258065	-0.05659215	0.02718781	1.00118724
0.38709677	0.32258065	-0.06089795	0.02282376	1.00194176
0.41935484	0.32258065	-0.06453115	0.01799174	1.00280313
0.45161290	0.32258065	-0.06742351	0.01273019	1.00376630
0.48387097	0.32258065	-0.06950299	0.00707367	1.00482266
0.51612903	0.32258065	-0.07069259	0.00106450	1.00595905
0.54838710	0.32258065	-0.07091149	-0.00523562	1.00715680
0.58064516	0.32258065	-0.07007905	-0.01173381	1.00839100
0.61290323	0.32258065	-0.06812230	-0.01829405	1.00963011
0.64516129	0.32258065	-0.06498752	-0.02472632	1.01083627
0.67741935	0.32258065	-0.06065590	-0.03077900	1.01196652
0.70967742	0.32258065	-0.05516236	-0.03613734	1.01297522
0.74193548	0.32258065	-0.04861543	-0.04043160	1.01381773
0.77419355	0.32258065	-0.04121462	-0.04325764	1.01445505
0.80645161	0.32258065	-0.03326049	-0.04421115	1.01485872
0.83870968	0.32258065	-0.02515281	-0.04293385	1.01501500
0.87096774	0.32258065	-0.01737342	-0.03916648	1.01492716
0.90322581	0.32258065	-0.01045396	-0.03280017	1.01461505
0.93548387	0.32258065	-0.00493284	-0.02391736	1.01411172
0.96774194	0.32258065	-0.00130900	-0.01281421	1.01345744
1.00000000	0.32258065	0.00000000	0.00000000	1.01309783
0.00000000	0.35483871	0.00000000	0.00000000	0.99953680
0.03225806	0.35483871	-0.00141333	0.01507349	0.99919924
0.06451613	0.35483871	-0.00499693	0.02686581	0.99862183
0.09677419	0.35483871	-0.01014093	0.03547665	0.99823199
0.12903226	0.35483871	-0.01631234	0.04118741	0.99801281
0.16129032	0.35483871	-0.02306979	0.04438729	0.99794699
0.19354839	0.35483871	-0.03006479	0.04550391	0.99802000
0.22580645	0.35483871	-0.03703316	0.04494742	0.99822143
0.25806452	0.35483871	-0.04378065	0.04307332	0.99854494
0.29032258	0.35483871	-0.05016629	0.04016463	0.99898763
0.32258065	0.35483871	-0.05608620	0.03642993	0.99954893
0.35483871	0.35483871	-0.06145959	0.03201209	1.00022946
0.38709677	0.35483871	-0.06621731	0.02700237	1.00102977
0.41935484	0.35483871	-0.07029311	0.02145610	1.00194917
0.45161290	0.35483871	-0.07361714	0.01540783	1.00298451
0.48387097	0.35483871	-0.07611144	0.00888554	1.00412896
0.51612903	0.35483871	-0.07768750	0.00192453	1.00537070
0.54838710	0.35483871	-0.07824641	-0.00541821	1.00669161
0.58064516	0.35483871	-0.07768234	-0.01304858	1.00806610
0.61290323	0.35483871	-0.07589051	-0.02081907	1.00946022
0.64516129	0.35483871	-0.07278074	-0.02851317	1.01083151
0.67741935	0.35483871	-0.06829695	-0.03583318	1.01213004
0.70967742	0.35483871	-0.06244222	-0.04239588	1.01330094
0.74193548	0.35483871	-0.05530676	-0.04774093	1.01428879
0.77419355	0.35483871	-0.04709426	-0.05135669	1.01504356
0.80645161	0.35483871	-0.03813971	-0.05272538	1.01552728
0.83870968	0.35483871	-0.02891090	-0.05138536	1.01572001
0.87096774	0.35483871	-0.01998771	-0.04700225	1.01562363
0.90322581	0.35483871	-0.01201779	-0.03943623	1.01526180
0.93548387	0.35483871	-0.00565477	-0.02879142	1.01467601
0.96774194	0.35483871	-0.00149126	-0.01543743	1.01391809
1.00000000	0.35483871	0.00000000	0.00000000	1.01350294
0.00000000	0.38709677	0.00000000	0.00000000	0.99841841
0.03225806	0.38709677	-0.00154743	0.01768152	0.99804846
0.06451613	0.38709677	-0.00546762	0.03141891	0.99741546
0.09677419	0.38709677	-0.01108460	0.04137519	0.99698741
0.12903226	0.38709677	-0.01780781	0.04792068	0.99674489
0.16129032	0.38709677	-0.02515141	0.05154289	0.99666775
0.19354839	0.38709677	-0.03273666	0.05276410	0.99673896
0.22580645	0.38709677	-0.04028195	0.05207680	0.99694631
0.25806452	0.38709677	-0.04758577	0.04990205	0.99728263
0.29032258	0.38709677	-0.05450702	0.04657067	0.99774503
0.32258065	0.38709677	-0.06094605	0.04232274	0.99833376
0.35483871	0.38709677	-0.06682822	0.03731891	0.99905090
0.38709677	0.38709677	-0.07209063	0.03165727	0.99989897
0.41935484	0.38709677	-0.07667160	0.02539158	1.00087962
0.45161290	0.38709677	-0.08050253	0.01854852	1.00199231
0.48387097	0.38709677	-0.08350167	0.01114402	1.00323278
0.51612903	0.38709677	-0.08556995	0.00319947	1.00459154
0.54838710	0.38709677	-0.08658925	-0.00524078	1.00605209
0.58064516	0.38709677	-0.08642460	-0.01408971	1.00758911
0.61290323	0.38709677	-0.08493175	-0.02319565	1.00916695
0.64516129	0.38709677	-0.08197208	-0.03231988	1.01073871
0.67741935	0.38709677	-0.07743621	-0.04111752	1.01224672
0.70967742	0.38709677	-0.07127641	-0.04912753	1.01362501
0.74193548	0.38709677	-0.06354560	-0.05577955	1.01480424
0.77419355	0.38709677	-0.05443703	-0.06042469	1.01571924
0.80645161	0.38709677	-0.04431525	-0.06239451	1.01631804
0.83870968	0.38709677	-0.03372594	-0.06108585	1.01657062
0.87096774	0.38709677	-0.02337357	-0.05605958	1.01647493
0.90322581	0.38709677	-0.01406209	-0.04713311	1.01605794
0.93548387	0.38709677	-0.00660633	-0.03444388	1.01537104
0.96774194	0.38709677	-0.00173372	-0.01846897	1.01448057
1.00000000	0.38709677	0.00000000	0.00000000	1.01399331
0.00000000	0.41935484	0.00000000	0.00000000	0.99707146
0.03225806	0.41935484	-0.00170310	0.02054110	0.99666431
0.06451613	0.41935484	-0.00601025	0.03640297	0.99596786
0.09677419	0.41935484	-0.01216542	0.04781682	0.99549688
0.12903226	0.41935484	-0.01950940	0.05525421	0.99522869
0.16129032	0.41935484	-0.02750456	0.05931613	0.99513933
0.19354839	0.41935484	-0.03573816	0.06063444	0.99520844
0.22580645	0.41935484	-0.04391031	0.05979652	0.99542146
0.25806452	0.41935484	-0.05181341	0.05729838	0.99576998
0.29032258	0.41935484	-0.05930878	0.05352490	0.99625100
0.32258065	0.41935484	-0.06630437	0.04875113	0.99686563
0.35483871	0.41935484	-0.07273569	0.04315667	0.99761760
0.38709677	0.41935484	-0.07855036	0.03684574	0.99851179
0.41935484	0.41935484	-0.08369576	0.02986799	0.99955276
0.45161290	0.41935484	-0.08810903	0.02223790	1.00074333
0.48387097	0.41935484	-0.09170873	0.01395296	1.00208290
0.51612903	0.41935484	-0.09438812	0.00501211	1.00356561
0.54838710	0.41935484	-0.09601081	-0.00456356	1.00517811
0.58064516	0.41935484	-0.09641027	-0.01470608	1.00689705
0.61290323	0.41935484	-0.09539559	-0.02527159	1.00868662
0.64516129	0.41935484	-0.09276649	-0.03600871	1.01049648
0.67741935	0.41935484	-0.08834031	-0.04652885	1.01226122
0.70967742	0.41935484	-0.08199260	-0.05628648	1.01390206
0.74193548	0.41935484	-0.07371002	-0.06458031	1.01533220
0.77419355	0.41935484	-0.06364930	-0.07058704	1.01646589
0.80645161	0.41935484	-0.05218940	-0.07343646	1.01723057
0.83870968	0.41935484	-0.03995858	-0.07232702	1.01757972
0.87096774	0.41935484	-0.02781612	-0.06666609	1.01750258
0.90322581	0.41935484	-0.01677654	-0.05620346	1.01702745
0.93548387	0.41935484	-0.00788339	-0.04111978	1.01621669
0.96774194	0.41935484	-0.00206300	-0.02204375	1.01515479
1.00000000	0.41935484	0.00000000	0.00000000	1.01457252
0.00000000	0.45161290	0.00000000	0.00000000	0.99547227
0.03225806	0.45161290	-0.00188511	0.02369176	0.99502202
0.06451613	0.45161290	-0.00664024	0.04188122	0.99425255
0.09677419	0.45161290	-0.01341115	0.05487432	0.99373308
0.12903226	0.45161290	-0.02145546	0.06325981	0.99343653
0.16129032	0.45161290	-0.03017436	0.06777164	0.99333392
0.19354839	0.45161290	-0.03911647	0.06916984	0.99340042
0.22580645	0.45161290	-0.04796281	0.06815204	0.99361824
0.25806452	0.45161290	-0.05650149	0.06530051	0.99397721
0.29032258	0.45161290	-0.06459961	0.06106162	0.99447392
0.32258065	0.45161290	-0.07217708	0.05574965	0.99511031
0.35483871	0.45161290	-0.07918454	0.04956489	0.99589189
0.38709677	0.45161290	-0.08558564	0.04261734	0.99682622
0.41935484	0.45161290	-0.09134284	0.03495025	0.99792131
0.45161290	0.45161290	-0.09640537	0.02656149	0.99918414
0.48387097	0.45161290	-0.10069844	0.01742311	1.00061895
0.51612903	0.45161290	-0.10411342	0.00750155	1.00222513
0.54838710	0.45161290	-0.10649960	-0.00321864	1.00399460
0.58064516	0.45161290	-0.10765948	-0.01470493	1.00590854
0.61290323	0.45161290	-0.10735053	-0.02683942	1.00793367
0.64516129	0.45161290	-0.10529794	-0.03937516	1.01001869
0.67741935	0.45161290	-0.10122305	-0.05189141	1.01209174
0.70967742	0.45161290	-0.09489169	-0.06375781	1.01406067
0.74193548	0.45161290	-0.08618338	-0.07412285	1.01581766
0.77419355	0.45161290	-0.07517608	-0.08194531	1.01724964
0.80645161	0.45161290	-0.06223106	-0.08608521	1.01825413
0.83870968	0.45161290	-0.04805148	-0.08545912	1.01875783
0.87096774	0.45161290	-0.03368071	-0.07924163	1.01873267
0.90322581	0.45161290	-0.02041305	-0.06706583	1.01820342
0.93548387	0.45161290	-0.00961728	-0.04915740	1.01724335
0.96774194	0.45161290	-0.00251680	-0.02635236	1.01595913
1.00000000	0.45161290	0.00000000	0.00000000	1.01525080
0.00000000	0.48387097	0.00000000	0.00000000	0.99359224
0.03225806	0.48387097	-0.00209950	0.02718133	0.99309174
0.06451613	0.48387097	-0.00737647	0.04792900	0.99223782
0.09677419	0.48387097	-0.01485455	0.06263204	0.99166360
0.12903226	0.48387097	-0.02368932	0.07201740	0.99133617
0.16129032	0.48387097	-0.03320887	0.07697713	0.99121976
0.19354839	0.48387097	-0.04291788	0.07842289	0.99128351
0.22580645	0.48387097	-0.05247772	0.07718153	0.99150519
0.25806452	0.48387097	-0.06167484	0.07393517	0.99187210
0.29032258	0.48387097	-0.07038653	0.06920049	0.99238003
0.32258065	0.48387097	-0.07855003	0.06333605	0.99303153
0.35483871	0.48387097	-0.08613710	0.05656522	0.99383394
0.38709677	0.48387097	-0.09313406	0.04900404	0.99479763
0.41935484	0.48387097	-0.09952583	0.04068772	0.99593444
0.45161290	0.48387097	-0.10528194	0.03159350	0.99725621
0.48387097	0.48387097	-0.11034319	0.02166101	0.99877317
0.51612903	0.48387097	-0.11460813	0.01081327	1.00049177
0.54838710	0.48387097	-0.11791997	-0.00101750	1.00241180
0.58064516	0.48387097	-0.12005556	-0.01385515	1.00452242
0.61290323	0.48387097	-0.12072048	-0.02763312	1.00679718
0.64516129	0.48387097	-0.11955595	-0.04213618	1.00918825
0.67741935	0.48387097	-0.11616495	-0.05693509	1.01162124
0.70967742	0.48387097	-0.11016569	-0.07132615	1.01399223
0.74193548	0.48387097	-0.10127755	-0.08429591	1.01617014
0.77419355	0.48387097	-0.08943760	-0.09453936	1.01800712
0.80645161	0.48387097	-0.07493204	-0.10056106	1.01935815
0.83870968	0.48387097	-0.05850750	-0.10087737	1.02010744
0.87096774	0.48387097	-0.04140930	-0.09430451	1.02019458
0.90322581	0.48387097	-0.02529191	-0.08026688	1.01963068
0.93548387	0.48387097	-0.01198169	-0.05901603	1.01849704
0.96774194	0.48387097	-0.00314686	-0.03166102	1.01692652
1.00000000	0.48387097	0.00000000	0.00000000	1.01605104
0.00000000	0.51612903	0.00000000	0.00000000	0.99139651
0.03225806	0.51612903	-0.00235449	0.03106822	0.99083700
0.06451613	0.51612903	-0.00824374	0.05463626	0.98988509
0.09677419	0.51612903	-0.01653702	0.07118716	0.98924965
0.12903226	0.51612903	-0.02626316	0.08161412	0.98888984
0.16129032	0.51612903	-0.03666246	0.08700020	0.98876066
0.19354839	0.51612903	-0.04718966	0.08843868	0.98882297
0.22580645	0.51612903	-0.05748682	0.08690899	0.98904855
0.25806452	0.51612903	-0.06734260	0.08320932	0.98942110
0.29032258	0.51612903	-0.07665018	0.07793682	0.98993502
0.32258065	0.51612903	-0.08537050	0.07150021	0.99059313
0.35483871	0.51612903	-0.09350331	0.06414891	0.99140440
0.38709677	0.51612903	-0.10106505	0.05600607	0.99238193
0.41935484	0.51612903	-0.10807146	0.04709813	0.99354147
0.45161290	0.51612903	-0.11452206	0.03737884	0.99490010
0.48387097	0.51612903	-0.12038445	0.02674930	0.99647488
0.51612903	0.51612903	-0.12557701	0.01507834	0.99828099
0.54838710	0.51612903	-0.12995000	0.00222879	1.00032888
0.58064516	0.51612903	-0.13326657	-0.01190442	1.00262001
0.61290323	0.51612903	-0.13518795	-0.02733903	1.00514059