VARIABLES="X","Y","U","V","P"
ZONE  F=POINT
I=64, J=64
0.00000000	0.00000000	0.00000000	0.00000000	1.00000000
0.01562500	0.00000000	0.00000000	0.00000000	1.00000000
0.03125000	0.00000000	0.00000000	0.00000000	1.00000000
0.04687500	0.00000000	0.00000000	0.00000000	1.00000000
0.06250000	0.00000000	0.00000000	0.00000000	1.00000000
0.07812500	0.00000000	0.00000000	0.00000000	1.00000000
0.09375000	0.00000000	0.00000000	0.00000000	1.00000000
0.10937500	0.00000000	0.00000000	0.00000000	1.00000000
0.12500000	0.00000000	0.00000000	0.00000000	1.00000000
0.14062500	0.00000000	0.00000000	0.00000000	1.00000000
0.15625000	0.00000000	0.00000000	0.00000000	1.00000000
0.17187500	0.00000000	0.00000000	0.00000000	1.00000000
0.18750000	0.00000000	0.00000000	0.00000000	1.00000000
0.20312500	0.00000000	0.00000000	0.00000000	1.00000000
0.21875000	0.00000000	0.00000000	0.00000000	1.00000000
0.23437500	0.00000000	0.00000000	0.00000000	1.00000000
0.25000000	0.00000000	0.00000000	0.00000000	1.00000000
0.26562500	0.00000000	0.00000000	0.00000000	1.00000000
0.28125000	0.00000000	0.00000000	0.00000000	1.00000000
0.29687500	0.00000000	0.00000000	0.00000000	1.00000000
0.31250000	0.00000000	0.00000000	0.00000000	1.00000000
0.32812500	0.00000000	0.00000000	0.00000000	1.00000000
0.34375000	0.00000000	0.00000000	0.00000000	1.00000000
0.35937500	0.00000000	0.00000000	0.00000000	1.00000000
0.37500000	0.00000000	0.00000000	0.00000000	1.00000000
0.39062500	0.00000000	0.00000000	0.00000000	1.00000000
0.40625000	0.00000000	0.00000000	0.00000000	1.00000000
0.42187500	0.00000000	0.00000000	0.00000000	1.00000000
0.43750000	0.00000000	0.00000000	0.00000000	1.00000000
0.45312500	0.00000000	0.00000000	0.00000000	1.00000000
0.46875000	0.00000000	0.00000000	0.00000000	1.00000000
0.48437500	0.00000000	0.00000000	0.00000000	1.00000000
0.50000000	0.00000000	0.00000000	0.00000000	1.00000000
0.51562500	0.00000000	0.00000000	0.00000000	1.00000000
0.53125000	0.00000000	0.00000000	0.00000000	1.00000000
0.54687500	0.00000000	0.00000000	0.00000000	1.00000000
0.56250000	0.00000000	0.00000000	0.00000000	1.00000000
0.57812500	0.00000000	0.00000000	0.00000000	1.00000000
0.59375000	0.00000000	0.00000000	0.00000000	1.00000000
0.60937500	0.00000000	0.00000000	0.00000000	1.00000000
0.62500000	0.00000000	0.00000000	0.00000000	1.00000000
0.64062500	0.00000000	0.00000000	0.00000000	1.00000000
0.65625000	0.00000000	0.00000000	0.00000000	1.00000000
0.67187500	0.00000000	0.00000000	0.00000000	1.00000000
0.68750000	0.00000000	0.00000000	0.00000000	1.00000000
0.70312500	0.00000000	0.00000000	0.00000000	1.00000000
0.71875000	0.00000000	0.00000000	0.00000000	1.00000000
0.73437500	0.00000000	0.00000000	0.00000000	1.00000000
0.75000000	0.00000000	0.00000000	0.00000000	1.00000000
0.76562500	0.00000000	0.00000000	0.00000000	1.00000000
0.78125000	0.00000000	0.00000000	0.00000000	1.00000000
0.79687500	0.00000000	0.00000000	0.00000000	1.00000000
0.81250000	0.00000000	0.00000000	0.00000000	1.00000000
0.82812500	0.00000000	0.00000000	0.00000000	1.00000000
0.84375000	0.00000000	0.00000000	0.00000000	1.00000000
0.85937500	0.00000000	0.00000000	0.00000000	1.00000000
0.87500000	0.00000000	0.00000000	0.00000000	1.00000000
0.89062500	0.00000000	0.00000000	0.00000000	1.00000000
0.90625000	0.00000000	0.00000000	0.00000000	1.00000000
0.92187500	0.00000000	0.00000000	0.00000000	1.00000000
0.93750000	0.00000000	0.00000000	0.00000000	1.00000000
0.95312500	0.00000000	0.00000000	0.00000000	1.00000000
0.96875000	0.00000000	0.00000000	0.00000000	1.00000000
0.98437500	0.00000000	0.00000000	0.00000000	1.00000000
0.00000000	0.01562500	0.00000000	0.00000000	1.00000000
0.01562500	0.01562500	0.00026929	-0.00026929	1.03611359
0.03125000	0.01562500	0.00102705	-0.00048847	1.03611955
0.04687500	0.01562500	0.00227517	-0.00075966	1.03612327
0.06250000	0.01562500	0.00383831	-0.00080348	1.03611123
0.07812500	0.01562500	0.00531137	-0.00066958	1.03608277
0.09375000	0.01562500	0.00643681	-0.00045586	1.03604251
0.10937500	0.01562500	0.00714556	-0.00025289	1.03599625
0.12500000	0.01562500	0.00751270	-0.00011426	1.03594767
0.14062500	0.01562500	0.00767680	-0.00004984	1.03589715
0.15625000	0.01562500	0.00775983	-0.00003319	1.03584207
0.17187500	0.01562500	0.00781056	-0.00001753	1.03577782
0.18750000	0.01562500	0.00778410	0.00004398	1.03569903
0.20312500	0.01562500	0.00755697	0.00018315	1.03560040
0.21875000	0.01562500	0.00695788	0.00041594	1.03547678
0.23437500	0.01562500	0.00578596	0.00075597	1.03532242
0.25000000	0.01562500	0.00379319	0.00123680	1.03513020
0.26562500	0.01562500	0.00068442	0.00187198	1.03489256
0.28125000	0.01562500	-0.00379639	0.00260883	1.03459824
0.29687500	0.01562500	-0.00997437	0.00356914	1.03422646
0.31250000	0.01562500	-0.01851334	0.00496983	1.03376991
0.32812500	0.01562500	-0.03005352	0.00657036	1.03325359
0.34375000	0.01562500	-0.04446617	0.00784229	1.03269325
0.35937500	0.01562500	-0.06081651	0.00850804	1.03207268
0.37500000	0.01562500	-0.07789475	0.00857020	1.03138080
0.39062500	0.01562500	-0.09460248	0.00813753	1.03064403
0.40625000	0.01562500	-0.11007581	0.00733580	1.02992750
0.42187500	0.01562500	-0.12368279	0.00627118	1.02931957
0.43750000	0.01562500	-0.13497628	0.00502231	1.02891367
0.45312500	0.01562500	-0.14364123	0.00364265	1.02879393
0.46875000	0.01562500	-0.14945036	0.00216648	1.02902528
0.48437500	0.01562500	-0.15223195	0.00061511	1.02964713
0.50000000	0.01562500	-0.15184995	-0.00099711	1.03066884
0.51562500	0.01562500	-0.14819543	-0.00265741	1.03206587
0.53125000	0.01562500	-0.14118872	-0.00434931	1.03377621
0.54687500	0.01562500	-0.13079186	-0.00604756	1.03569750
0.56250000	0.01562500	-0.11703120	-0.00771311	1.03768610
0.57812500	0.01562500	-0.10002927	-0.00928882	1.03956055
0.59375000	0.01562500	-0.08004372	-0.01069672	1.04111204
0.60937500	0.01562500	-0.05750860	-0.01183841	1.04212497
0.62500000	0.01562500	-0.03306945	-0.01260074	1.04240829
0.64062500	0.01562500	-0.00759999	-0.01286872	1.04183511
0.65625000	0.01562500	0.01781524	-0.01254651	1.04038201
0.67187500	0.01562500	0.04194656	-0.01158481	1.03815438
0.68750000	0.01562500	0.06353928	-0.01000791	1.03538246
0.70312500	0.01562500	0.08147574	-0.00792856	1.03238046
0.71875000	0.01562500	0.09494068	-0.00553638	1.02947672
0.73437500	0.01562500	0.10352953	-0.00305247	1.02694062
0.75000000	0.01562500	0.10724531	-0.00066331	1.02493675
0.76562500	0.01562500	0.10637815	0.00153046	1.02352098
0.78125000	0.01562500	0.10133437	0.00351332	1.02266689
0.79687500	0.01562500	0.09252431	0.00529673	1.02229597
0.81250000	0.01562500	0.08040271	0.00682486	1.02229436
0.82812500	0.01562500	0.06568811	0.00788974	1.02252191
0.84375000	0.01562500	0.04967210	0.00812627	1.02283607
0.85937500	0.01562500	0.03427599	0.00726985	1.02313622
0.87500000	0.01562500	0.02141508	0.00559106	1.02338548
0.89062500	0.01562500	0.01204050	0.00378352	1.02358235
0.90625000	0.01562500	0.00591683	0.00234016	1.02373120
0.92187500	0.01562500	0.00224960	0.00132707	1.02383938
0.93750000	0.01562500	0.00030907	0.00061346	1.02391633
0.95312500	0.01562500	-0.00038367	0.00007927	1.02396818
0.96875000	0.01562500	-0.00023147	-0.00023147	1.02399340
0.98437500	0.01562500	0.00000000	0.00000000	1.00000000
0.00000000	0.03125000	0.00000000	0.00000000	1.00000000
0.01562500	0.03125000	0.00056563	-0.00110422	1.03610677
0.03125000	0.03125000	0.00200917	-0.00185484	1.03611277
0.04687500	0.03125000	0.00408374	-0.00271597	1.03611486
0.06250000	0.03125000	0.00647610	-0.00280267	1.03610110
0.07812500	0.03125000	0.00863219	-0.00229956	1.03607222
0.09375000	0.03125000	0.01021550	-0.00153463	1.03603333
0.10937500	0.03125000	0.01113391	-0.00080128	1.03599011
0.12500000	0.03125000	0.01146870	-0.00026780	1.03594575
0.14062500	0.03125000	0.01136495	0.00004335	1.03590008
0.15625000	0.03125000	0.01092257	0.00023295	1.03585018
0.17187500	0.03125000	0.01011621	0.00047195	1.03579150
0.18750000	0.03125000	0.00876446	0.00093270	1.03571910
0.20312500	0.03125000	0.00654500	0.00174102	1.03562832
0.21875000	0.03125000	0.00302356	0.00297860	1.03551455
0.23437500	0.03125000	-0.00232414	0.00471294	1.03537182
0.25000000	0.03125000	-0.01013784	0.00708630	1.03519035
0.26562500	0.03125000	-0.02132366	0.01031707	1.03495879
0.28125000	0.03125000	-0.03690607	0.01422695	1.03466867
0.29687500	0.03125000	-0.05706853	0.01829145	1.03429752
0.31250000	0.03125000	-0.08045202	0.02216997	1.03381528
0.32812500	0.03125000	-0.10491187	0.02537025	1.03322737
0.34375000	0.03125000	-0.12871807	0.02726124	1.03255813
0.35937500	0.03125000	-0.15088485	0.02760620	1.03181708
0.37500000	0.03125000	-0.17088584	0.02655127	1.03101580
0.39062500	0.03125000	-0.18840430	0.02438264	1.03019225
0.40625000	0.03125000	-0.20323257	0.02139228	1.02941322
0.42187500	0.03125000	-0.21522975	0.01781886	1.02876294
0.43750000	0.03125000	-0.22429820	0.01383655	1.02832838
0.45312500	0.03125000	-0.23036611	0.00956127	1.02818710
0.46875000	0.03125000	-0.23337387	0.00506473	1.02839861
0.48437500	0.03125000	-0.23326434	0.00038891	1.02899847
0.50000000	0.03125000	-0.22997783	-0.00443943	1.02999401
0.51562500	0.03125000	-0.22345240	-0.00939504	1.03136043
0.53125000	0.03125000	-0.21363045	-0.01444034	1.03303716
0.54687500	0.03125000	-0.20047246	-0.01951138	1.03492465
0.56250000	0.03125000	-0.18397892	-0.02450348	1.03688298
0.57812500	0.03125000	-0.16422102	-0.02925828	1.03873455
0.59375000	0.03125000	-0.14137933	-0.03355450	1.04027358
0.60937500	0.03125000	-0.11578768	-0.03710741	1.04128562
0.62500000	0.03125000	-0.08797559	-0.03958298	1.04157829
0.64062500	0.03125000	-0.05869821	-0.04063331	1.04102105
0.65625000	0.03125000	-0.02893814	-0.03995722	1.03958608
0.67187500	0.03125000	0.00013861	-0.03738217	1.03737600
0.68750000	0.03125000	0.02728541	-0.03295007	1.03462226
0.70312500	0.03125000	0.05133417	-0.02697163	1.03164436
0.71875000	0.03125000	0.07137921	-0.02000328	1.02877672
0.73437500	0.03125000	0.08692040	-0.01271561	1.02629015
0.75000000	0.03125000	0.09788781	-0.00568337	1.02434243
0.76562500	0.03125000	0.10451375	0.00079174	1.02297744
0.78125000	0.03125000	0.10711111	0.00669847	1.02216045
0.79687500	0.03125000	0.10588182	0.01215093	1.02181734
0.81250000	0.03125000	0.10085729	0.01711679	1.02185323
0.82812500	0.03125000	0.09200580	0.02116390	1.02215225
0.84375000	0.03125000	0.07948783	0.02338609	1.02258150
0.85937500	0.03125000	0.06404938	0.02284459	1.02301732
0.87500000	0.03125000	0.04736184	0.01956476	1.02337737
0.89062500	0.03125000	0.03174023	0.01480600	1.02363180
0.90625000	0.03125000	0.01910902	0.01007255	1.02379296
0.92187500	0.03125000	0.01016468	0.00620626	1.02389165
0.93750000	0.03125000	0.00452383	0.00331566	1.02395465
0.95312500	0.03125000	0.00142564	0.00116800	1.02399709
0.96875000	0.03125000	0.00020809	-0.00025485	1.02402445
0.98437500	0.03125000	0.00000000	0.00000000	1.00000000
0.00000000	0.04687500	0.00000000	0.00000000	1.00000000
0.01562500	0.04687500	0.00083339	-0.00250324	1.03610572
0.03125000	0.04687500	0.00287440	-0.00394038	1.03611285
0.04687500	0.04687500	0.00555717	-0.00538778	1.03611285
0.06250000	0.04687500	0.00836906	-0.00533511	1.03609462
0.07812500	0.04687500	0.01065947	-0.00421363	1.03606177
0.09375000	0.04687500	0.01210426	-0.00264865	1.03602186
0.10937500	0.04687500	0.01265097	-0.00115238	1.03598150
0.12500000	0.04687500	0.01238745	0.00001204	1.03594344
0.14062500	0.04687500	0.01139952	0.00085519	1.03590627
0.15625000	0.04687500	0.00964624	0.00161676	1.03586571
0.17187500	0.04687500	0.00687793	0.00266283	1.03581631
0.18750000	0.04687500	0.00261400	0.00435750	1.03575279
0.20312500	0.04687500	-0.00383957	0.00698925	1.03567003
0.21875000	0.04687500	-0.01340885	0.01082109	1.03556133
0.23437500	0.04687500	-0.02730480	0.01611409	1.03541686
0.25000000	0.04687500	-0.04661171	0.02280576	1.03522149
0.26562500	0.04687500	-0.07112834	0.03030004	1.03494688
0.28125000	0.04687500	-0.09892471	0.03762275	1.03456064
0.29687500	0.04687500	-0.12753333	0.04366673	1.03404229
0.31250000	0.04687500	-0.15510468	0.04774952	1.03338190
0.32812500	0.04687500	-0.18054605	0.04969192	1.03259236
0.34375000	0.04687500	-0.20333055	0.04953027	1.03170530
0.35937500	0.04687500	-0.22330843	0.04748183	1.03075311
0.37500000	0.04687500	-0.24051296	0.04388115	1.02977216
0.39062500	0.04687500	-0.25503077	0.03908902	1.02881293
0.40625000	0.04687500	-0.26694394	0.03342734	1.02794137
0.42187500	0.04687500	-0.27631113	0.02714817	1.02723238
0.43750000	0.04687500	-0.28316519	0.02042972	1.02676036
0.45312500	0.04687500	-0.28751421	0.01338503	1.02659067
0.46875000	0.04687500	-0.28934275	0.00607727	1.02677293
0.48437500	0.04687500	-0.28861208	-0.00146383	1.02733620
0.50000000	0.04687500	-0.28526077	-0.00922453	1.02828495
0.51562500	0.04687500	-0.27920662	-0.01718952	1.02959534
0.53125000	0.04687500	-0.27035162	-0.02532282	1.03121139
0.54687500	0.04687500	-0.25859150	-0.03354701	1.03304143
0.56250000	0.04687500	-0.24383204	-0.04172085	1.03495585
0.57812500	0.04687500	-0.22601398	-0.04961688	1.03678815
0.59375000	0.04687500	-0.20514832	-0.05690326	1.03834224
0.60937500	0.04687500	-0.18136189	-0.06313674	1.03940909
0.62500000	0.04687500	-0.15495039	-0.06777726	1.03979498
0.64062500	0.04687500	-0.12643078	-0.07023602	1.03936028
0.65625000	0.04687500	-0.09657825	-0.06996713	1.03806204
0.67187500	0.04687500	-0.06642533	-0.06660193	1.03598660
0.68750000	0.04687500	-0.03719708	-0.06010537	1.03335439
0.70312500	0.04687500	-0.01016155	-0.05090062	1.03048355
0.71875000	0.04687500	0.01359755	-0.03987843	1.02771509
0.73437500	0.04687500	0.03342426	-0.02820835	1.02532608
0.75000000	0.04687500	0.04922387	-0.01695764	1.02347114
0.76562500	0.04687500	0.06136449	-0.00670054	1.02218027
0.78125000	0.04687500	0.07036180	0.00259607	1.02140445
0.79687500	0.04687500	0.07653292	0.01131150	1.02107028
0.81250000	0.04687500	0.07981175	0.01970192	1.02110774
0.82812500	0.04687500	0.07978863	0.02745338	1.02144341
0.84375000	0.04687500	0.07593183	0.03347138	1.02197885
0.85937500	0.04687500	0.06797013	0.03615944	1.02258519
0.87500000	0.04687500	0.05641499	0.03449259	1.02313214
0.89062500	0.04687500	0.04284402	0.02907076	1.02353658
0.90625000	0.04687500	0.02945087	0.02183214	1.02378751
0.92187500	0.04687500	0.01808513	0.01475674	1.02392413
0.93750000	0.04687500	0.00959219	0.00889896	1.02399536
0.95312500	0.04687500	0.00393156	0.00434352	1.02403704
0.96875000	0.04687500	0.00088275	0.00083599	1.02407192
0.98437500	0.04687500	0.00000000	0.00000000	1.00000000
0.00000000	0.06250000	0.00000000	0.00000000	1.00000000
0.01562500	0.06250000	0.00110070	-0.00443734	1.03611318
0.03125000	0.06250000	0.00371553	-0.00666212	1.03612032
0.04687500	0.06250000	0.00686169	-0.00849497	1.03611467
0.06250000	0.06250000	0.00975517	-0.00793329	1.03608768
0.07812500	0.06250000	0.01169005	-0.00584074	1.03604774
0.09375000	0.06250000	0.01242540	-0.00320169	1.03600585
0.10937500	0.06250000	0.01198961	-0.00071028	1.03596950
0.12500000	0.06250000	0.01045715	0.00136592	1.03594019
0.14062500	0.06250000	0.00776121	0.00318517	1.03591425
0.15625000	0.06250000	0.00355942	0.00524184	1.03588501
0.17187500	0.06250000	-0.00282929	0.00819477	1.03584482
0.18750000	0.06250000	-0.01242962	0.01268980	1.03578561
0.20312500	0.06250000	-0.02657028	0.01925117	1.03569731
0.21875000	0.06250000	-0.04651028	0.02806845	1.03556355
0.23437500	0.06250000	-0.07237396	0.03862636	1.03535504
0.25000000	0.06250000	-0.10238792	0.04961436	1.03503316
0.26562500	0.06250000	-0.13377421	0.05939435	1.03456417
0.28125000	0.06250000	-0.16423533	0.06678593	1.03392672
0.29687500	0.06250000	-0.19244476	0.07132160	1.03311748
0.31250000	0.06250000	-0.21780714	0.07302837	1.03215181
0.32812500	0.06250000	-0.24014857	0.07219586	1.03106323
0.34375000	0.06250000	-0.25952366	0.06918591	1.02989726
0.35937500	0.06250000	-0.27610864	0.06438904	1.02870155
0.37500000	0.06250000	-0.29011988	0.05818972	1.02752516
0.39062500	0.06250000	-0.30176058	0.05093897	1.02642215
0.40625000	0.06250000	-0.31119589	0.04292588	1.02545231
0.42187500	0.06250000	-0.31854720	0.03436813	1.02467788
0.43750000	0.06250000	-0.32389501	0.02541162	1.02415829
0.45312500	0.06250000	-0.32728345	0.01614061	1.02394466
0.46875000	0.06250000	-0.32872382	0.00659060	1.02407528
0.48437500	0.06250000	-0.32819606	-0.00323560	1.02457185
0.50000000	0.06250000	-0.32564881	-0.01335132	1.02543619
0.51562500	0.06250000	-0.32099867	-0.02376702	1.02664693
0.53125000	0.06250000	-0.31412977	-0.03446922	1.02815604
0.54687500	0.06250000	-0.30489527	-0.04539524	1.02988514
0.56250000	0.06250000	-0.29312299	-0.05640437	1.03172264
0.57812500	0.06250000	-0.27862852	-0.06724589	1.03352294
0.59375000	0.06250000	-0.26123946	-0.07752897	1.03511058
0.60937500	0.06250000	-0.24083508	-0.08670184	1.03629218
0.62500000	0.06250000	-0.21740406	-0.09405468	1.03687942
0.64062500	0.06250000	-0.19111919	-0.09876307	1.03672347
0.65625000	0.06250000	-0.16242053	-0.09999128	1.03575677
0.67187500	0.06250000	-0.13208661	-0.09706462	1.03403033
0.68750000	0.06250000	-0.10125850	-0.08969903	1.03172860
0.70312500	0.06250000	-0.07136809	-0.07823290	1.02914457
0.71875000	0.06250000	-0.04392267	-0.06375067	1.02661132
0.73437500	0.06250000	-0.02014311	-0.04794239	1.02441129
0.75000000	0.06250000	-0.00057160	-0.03259473	1.02270615
0.76562500	0.06250000	0.01508791	-0.01886359	1.02152483
0.78125000	0.06250000	0.02768012	-0.00683041	1.02080999
0.79687500	0.06250000	0.03800373	0.00424324	1.02048429
0.81250000	0.06250000	0.04633919	0.01515588	1.02049193
0.82812500	0.06250000	0.05236001	0.02600172	1.02079645
0.84375000	0.06250000	0.05535906	0.03578079	1.02134614
0.85937500	0.06250000	0.05461435	0.04255643	1.02204059
0.87500000	0.06250000	0.04985199	0.04441308	1.02273660
0.89062500	0.06250000	0.04167993	0.04089329	1.02330383
0.90625000	0.06250000	0.03159261	0.03349009	1.02368453
0.92187500	0.06250000	0.02139885	0.02465828	1.02389959
0.93750000	0.06250000	0.01250127	0.01638794	1.02400644
0.95312500	0.06250000	0.00563505	0.00938138	1.02405966
0.96875000	0.06250000	0.00138162	0.00310036	1.02410242
0.98437500	0.06250000	0.00000000	0.00000000	1.00000000
0.00000000	0.07812500	0.00000000	0.00000000	1.00000000
0.01562500	0.07812500	0.00138102	-0.00691906	1.03613196
0.03125000	0.07812500	0.00455419	-0.00996840	1.03613674
0.04687500	0.07812500	0.00798043	-0.01176109	1.03611987
0.06250000	0.07812500	0.01056036	-0.01014059	1.03607922
0.07812500	0.07812500	0.01162171	-0.00662966	1.03602994
0.09375000	0.07812500	0.01107024	-0.00259665	1.03598644
0.10937500	0.07812500	0.00900396	0.00118675	1.03595574
0.12500000	0.07812500	0.00538680	0.00461851	1.03593650
0.14062500	0.07812500	-0.00017850	0.00819381	1.03592139
0.15625000	0.07812500	-0.00856640	0.01282289	1.03589953
0.17187500	0.07812500	-0.02110311	0.01953914	1.03585743
0.18750000	0.07812500	-0.03927476	0.02911741	1.03577672
0.20312500	0.07812500	-0.06389032	0.04157977	1.03562842
0.21875000	0.07812500	-0.09400786	0.05579738	1.03537022
0.23437500	0.07812500	-0.12698106	0.06973430	1.03495586
0.25000000	0.07812500	-0.15990653	0.08144584	1.03434892
0.26562500	0.07812500	-0.19081638	0.08985902	1.03353274
0.28125000	0.07812500	-0.21875067	0.09471666	1.03251367
0.29687500	0.07812500	-0.24337931	0.09622894	1.03131821
0.31250000	0.07812500	-0.26471138	0.09481548	1.02998737
0.32812500	0.07812500	-0.28292640	0.09096520	1.02857145
0.34375000	0.07812500	-0.29828620	0.08515147	1.02712469
0.35937500	0.07812500	-0.31108602	0.07780827	1.02570006
0.37500000	0.07812500	-0.32161795	0.06931365	1.02434839
0.39062500	0.07812500	-0.33014588	0.05998366	1.02311966
0.40625000	0.07812500	-0.33689171	0.05006232	1.02206366
0.42187500	0.07812500	-0.34203167	0.03972296	1.02122860
0.43750000	0.07812500	-0.34569811	0.02907103	1.02065854
0.45312500	0.07812500	-0.34798349	0.01815502	1.02039034
0.46875000	0.07812500	-0.34894413	0.00697718	1.02045078
0.48437500	0.07812500	-0.34860221	-0.00449187	1.02085404
0.50000000	0.07812500	-0.34694551	-0.01629901	1.02159929
0.51562500	0.07812500	-0.34392423	-0.02849076	1.02266818
0.53125000	0.07812500	-0.33944523	-0.04109338	1.02402204
0.54687500	0.07812500	-0.33336419	-0.05408664	1.02559885
0.56250000	0.07812500	-0.32547733	-0.06737210	1.02731029
0.57812500	0.07812500	-0.31551607	-0.08073389	1.02903985
0.59375000	0.07812500	-0.30314981	-0.09379629	1.03064377
0.60937500	0.07812500	-0.28800465	-0.10598406	1.03195763
0.62500000	0.07812500	-0.26970723	-0.11650091	1.03281148
0.64062500	0.07812500	-0.24796237	-0.12434658	1.03305604
0.65625000	0.07812500	-0.22266828	-0.12840052	1.03259869
0.67187500	0.07812500	-0.19406195	-0.12759564	1.03144155
0.68750000	0.07812500	-0.16286765	-0.12119041	1.02970656
0.70312500	0.07812500	-0.13039290	-0.10910669	1.02762843
0.71875000	0.07812500	-0.09848180	-0.09223340	1.02550438
0.73437500	0.07812500	-0.06921605	-0.07250497	1.02361108
0.75000000	0.07812500	-0.04431514	-0.05250456	1.02212595
0.76562500	0.07812500	-0.02443657	-0.03449184	1.02109739
0.78125000	0.07812500	-0.00892161	-0.01930933	1.02047824
0.79687500	0.07812500	0.00361251	-0.00613557	1.02019176
0.81250000	0.07812500	0.01426782	0.00654393	1.02018471
0.82812500	0.07812500	0.02330027	0.01956040	1.02043873
0.84375000	0.07812500	0.03025019	0.03227314	1.02093820
0.85937500	0.07812500	0.03437445	0.04268453	1.02162249
0.87500000	0.07812500	0.03506782	0.04835397	1.02236840
0.89062500	0.07812500	0.03226525	0.04792702	1.02303141
0.90625000	0.07812500	0.02666507	0.04214387	1.02351661
0.92187500	0.07812500	0.01952867	0.03333465	1.02381283
0.93750000	0.07812500	0.01219374	0.02394409	1.02396690
0.95312500	0.07812500	0.00577546	0.01510974	1.02403962
0.96875000	0.07812500	0.00145946	0.00594144	1.02408723
0.98437500	0.07812500	0.00000000	0.00000000	1.00000000
0.00000000	0.09375000	0.00000000	0.00000000	1.00000000
0.01562500	0.09375000	0.00164975	-0.00994983	1.03616630
0.03125000	0.09375000	0.00528297	-0.01374402	1.03616519
0.04687500	0.09375000	0.00867664	-0.01480538	1.03613017
0.06250000	0.09375000	0.01043875	-0.01143836	1.03607126
0.07812500	0.09375000	0.01006161	-0.00601611	1.03601169
0.09375000	0.09375000	0.00762009	-0.00021721	1.03596770
0.10937500	0.09375000	0.00317958	0.00531410	1.03594322
0.12500000	0.09375000	-0.00360792	0.01089583	1.03593172
0.14062500	0.09375000	-0.01370358	0.01757744	1.03591945
0.15625000	0.09375000	-0.02859337	0.02671694	1.03588629
0.17187500	0.09375000	-0.04972007	0.03930849	1.03580270
0.18750000	0.09375000	-0.07739746	0.05519709	1.03562488
0.20312500	0.09375000	-0.10998026	0.07269845	1.03529669
0.21875000	0.09375000	-0.14442549	0.08924146	1.03476282
0.23437500	0.09375000	-0.17785629	0.10269422	1.03398565
0.25000000	0.09375000	-0.20851286	0.11206795	1.03295566
0.26562500	0.09375000	-0.23562795	0.11726184	1.03169150
0.28125000	0.09375000	-0.25900295	0.11862313	1.03023297
0.29687500	0.09375000	-0.27874563	0.11669379	1.02863261
0.31250000	0.09375000	-0.29512807	0.11206514	1.02694854
0.32812500	0.09375000	-0.30850602	0.10530850	1.02523927
0.34375000	0.09375000	-0.31926975	0.09693170	1.02356013
0.35937500	0.09375000	-0.32780863	0.08736673	1.02196100
0.37500000	0.09375000	-0.33448490	0.07696338	1.02048640
0.39062500	0.09375000	-0.33961532	0.06599228	1.01917665
0.40625000	0.09375000	-0.34346243	0.05464664	1.01806886
0.42187500	0.09375000	-0.34623401	0.04305018	1.01719687
0.43750000	0.09375000	-0.34808815	0.03126438	1.01659019
0.45312500	0.09375000	-0.34914105	0.01929995	1.01627259
0.46875000	0.09375000	-0.34947484	0.00712668	1.01626029
0.48437500	0.09375000	-0.34914359	-0.00531454	1.01656040
0.50000000	0.09375000	-0.34817585	-0.01810079	1.01716923
0.51562500	0.09375000	-0.34657273	-0.03131337	1.01807063
0.53125000	0.09375000	-0.34430037	-0.04502212	1.01923419
0.54687500	0.09375000	-0.34127597	-0.05926334	1.02061330
0.56250000	0.09375000	-0.33734743	-0.07401079	1.02214302
0.57812500	0.09375000	-0.33226808	-0.08913582	1.02373837
0.59375000	0.09375000	-0.32567083	-0.10435788	1.02529360
0.60937500	0.09375000	-0.31705054	-0.11918793	1.02668441
0.62500000	0.09375000	-0.30576814	-0.13287686	1.02777526
0.64062500	0.09375000	-0.29109460	-0.14438903	1.02843478
0.65625000	0.09375000	-0.27231353	-0.15243323	1.02856061
0.67187500	0.09375000	-0.24889504	-0.15558775	1.02811084
0.68750000	0.09375000	-0.22073678	-0.15255085	1.02713291
0.70312500	0.09375000	-0.18843780	-0.14251998	1.02577385
0.71875000	0.09375000	-0.15352232	-0.12564670	1.02425684
0.73437500	0.09375000	-0.11846208	-0.10341766	1.02282228
0.75000000	0.09375000	-0.08627804	-0.07867682	1.02165509
0.76562500	0.09375000	-0.05956422	-0.05491197	1.02083762
0.78125000	0.09375000	-0.03925487	-0.03471353	1.02035665
0.79687500	0.09375000	-0.02420564	-0.01831471	1.02015309
0.81250000	0.09375000	-0.01230611	-0.00383177	1.02017510
0.82812500	0.09375000	-0.00208809	0.01068563	1.02040481
0.84375000	0.09375000	0.00670716	0.02540275	1.02084226
0.85937500	0.09375000	0.01359927	0.03853855	1.02145858
0.87500000	0.09375000	0.01794768	0.04745817	1.02216411
0.89062500	0.09375000	0.01933699	0.05023607	1.02283024
0.90625000	0.09375000	0.01786529	0.04690670	1.02335194
0.92187500	0.09375000	0.01419768	0.03937582	1.02369378
0.93750000	0.09375000	0.00935748	0.03007804	1.02388295
0.95312500	0.09375000	0.00453149	0.02022005	1.02397282
0.96875000	0.09375000	0.00113886	0.00853976	1.02402012
0.98437500	0.09375000	0.00000000	0.00000000	1.00000000
0.00000000	0.10937500	0.00000000	0.00000000	1.00000000
0.01562500	0.10937500	0.00184655	-0.01344613	1.03622287
0.03125000	0.10937500	0.00568088	-0.01771527	1.03621106
0.04687500	0.10937500	0.00855583	-0.01710277	1.03615061
0.06250000	0.10937500	0.00890027	-0.01124752	1.03607010
0.07812500	0.10937500	0.00648972	-0.00341925	1.03600039
0.09375000	0.10937500	0.00149713	0.00462003	1.03595611
0.10937500	0.10937500	-0.00625056	0.01266505	1.03593438
0.12500000	0.10937500	-0.01763003	0.02171184	1.03591957
0.14062500	0.10937500	-0.03411432	0.03334138	1.03588519
0.15625000	0.10937500	-0.05703111	0.04875959	1.03579056
0.17187500	0.10937500	-0.08637822	0.06773965	1.03557698
0.18750000	0.10937500	-0.12016566	0.08823076	1.03517294
0.20312500	0.10937500	-0.15517575	0.10725766	1.03451233
0.21875000	0.10937500	-0.18851681	0.12246852	1.03355575
0.23437500	0.10937500	-0.21848824	0.13286939	1.03230128
0.25000000	0.10937500	-0.24439982	0.13846094	1.03078095
0.26562500	0.10937500	-0.26612404	0.13970817	1.02904979
0.28125000	0.10937500	-0.28384969	0.13727745	1.02717413
0.29687500	0.10937500	-0.29795157	0.13188400	1.02522237
0.31250000	0.10937500	-0.30890254	0.12420833	1.02325877
0.32812500	0.10937500	-0.31721273	0.11485344	1.02134017
0.34375000	0.10937500	-0.32338072	0.10431847	1.01951469
0.35937500	0.10937500	-0.32786045	0.09299857	1.01782211
0.37500000	0.10937500	-0.33104014	0.08118750	1.01629528
0.39062500	0.10937500	-0.33323350	0.06909194	1.01496199
0.40625000	0.10937500	-0.33468118	0.05684179	1.01384632
0.42187500	0.10937500	-0.33555966	0.04450508	1.01296923
0.43750000	0.10937500	-0.33599434	0.03209829	1.01234829
0.45312500	0.10937500	-0.33607397	0.01959856	1.01199684
0.46875000	0.10937500	-0.33586402	0.00695192	1.01192285
0.48437500	0.10937500	-0.33541752	-0.00591753	1.01212770
0.50000000	0.10937500	-0.33478214	-0.01910093	1.01260504
0.51562500	0.10937500	-0.33400240	-0.03269610	1.01333974
0.53125000	0.10937500	-0.33311559	-0.04679857	1.01430693
0.54687500	0.10937500	-0.33213936	-0.06148752	1.01547123
0.56250000	0.10937500	-0.33104870	-0.07680581	1.01678601
0.57812500	0.10937500	-0.32974029	-0.09272857	1.01819277
0.59375000	0.10937500	-0.32798425	-0.10911841	1.01962082
0.60937500	0.10937500	-0.32536797	-0.12566397	1.02098775
0.62500000	0.10937500	-0.32124416	-0.14180704	1.02220186
0.64062500	0.10937500	-0.31470554	-0.15667102	1.02316827
0.65625000	0.10937500	-0.30461752	-0.16902033	1.02380087
0.67187500	0.10937500	-0.28974361	-0.17729306	1.02404089
0.68750000	0.10937500	-0.26898999	-0.17975743	1.02387885
0.70312500	0.10937500	-0.24177130	-0.17483108	1.02337147
0.71875000	0.10937500	-0.20845564	-0.16156675	1.02264107
0.73437500	0.10937500	-0.17077537	-0.14023810	1.02184916
0.75000000	0.10937500	-0.13197696	-0.11283884	1.02114999
0.76562500	0.10937500	-0.09633115	-0.08310959	1.02064571
0.78125000	0.10937500	-0.06763727	-0.05551915	1.02036826
0.79687500	0.10937500	-0.04716909	-0.03302649	1.02029723
0.81250000	0.10937500	-0.03302486	-0.01516377	1.02039658
0.82812500	0.10937500	-0.02212206	0.00089679	1.02064429
0.84375000	0.10937500	-0.01263598	0.01691025	1.02103831
0.85937500	0.10937500	-0.00436813	0.03187109	1.02156718
0.87500000	0.10937500	0.00217613	0.04323296	1.02217501
0.89062500	0.10937500	0.00644654	0.04880157	1.02276630
0.90625000	0.10937500	0.00817507	0.04808437	1.02325082
0.92187500	0.10937500	0.00757203	0.04246880	1.02358607
0.93750000	0.10937500	0.00533974	0.03405755	1.02378195
0.95312500	0.10937500	0.00257811	0.02382817	1.02387690
0.96875000	0.10937500	0.00061188	0.01029050	1.02391782
0.98437500	0.10937500	0.00000000	0.00000000	1.00000000
0.00000000	0.12500000	0.00000000	0.00000000	1.00000000
0.01562500	0.12500000	0.00188432	-0.01717700	1.03631223
0.03125000	0.12500000	0.00546086	-0.02139527	1.03628392
0.04687500	0.12500000	0.00717457	-0.01801144	1.03619188
0.06250000	0.12500000	0.00546048	-0.00896920	1.03608827
0.07812500	0.12500000	0.00040780	0.00176565	1.03600822
0.09375000	0.12500000	-0.00789194	0.01272744	1.03595960
0.10937500	0.12500000	-0.02004640	0.02445979	1.03592769
0.12500000	0.12500000	-0.03735105	0.03860121	1.03588076
0.14062500	0.12500000	-0.06100729	0.05659253	1.03576851
0.15625000	0.12500000	-0.09090249	0.07832043	1.03551866
0.17187500	0.12500000	-0.12497497	0.10159840	1.03504406
0.18750000	0.12500000	-0.15995116	0.12313564	1.03426570
0.20312500	0.12500000	-0.19285534	0.14026705	1.03313981
0.21875000	0.12500000	-0.22192171	0.15186657	1.03167047
0.23437500	0.12500000	-0.24646372	0.15798478	1.02990309
0.25000000	0.12500000	-0.26640551	0.15919892	1.02790893
0.26562500	0.12500000	-0.28202393	0.15631282	1.02576964
0.28125000	0.12500000	-0.29381831	0.15019282	1.02356521
0.29687500	0.12500000	-0.30240010	0.14165229	1.02136650
0.31250000	0.12500000	-0.30841153	0.13140244	1.01923194
0.32812500	0.12500000	-0.31246006	0.12001805	1.01720722
0.34375000	0.12500000	-0.31507513	0.10793692	1.01532697