VARIABLES="X","Y","U","V","P"
ZONE  F=POINT
I=128, J=128
0.00000000	0.00000000	0.00000000	0.00000000	1.01638455
0.00787402	0.00000000	-0.00000375	0.00000000	1.01638455
0.01574803	0.00000000	-0.00001437	0.00000000	1.01639248
0.02362205	0.00000000	-0.00002753	0.00000000	1.01638135
0.03149606	0.00000000	-0.00003973	0.00000000	1.01634583
0.03937008	0.00000000	-0.00004872	0.00000000	1.01628630
0.04724409	0.00000000	-0.00005310	0.00000000	1.01620545
0.05511811	0.00000000	-0.00005211	0.00000000	1.01610674
0.06299213	0.00000000	-0.00004536	0.00000000	1.01599370
0.07086614	0.00000000	-0.00003272	0.00000000	1.01586964
0.07874016	0.00000000	-0.00001420	0.00000000	1.01573757
0.08661417	0.00000000	0.00001004	0.00000000	1.01560019
0.09448819	0.00000000	0.00003979	0.00000000	1.01545985
0.10236220	0.00000000	0.00007478	0.00000000	1.01531861
0.11023622	0.00000000	0.00011472	0.00000000	1.01517827
0.11811024	0.00000000	0.00015928	0.00000000	1.01504037
0.12598425	0.00000000	0.00020814	0.00000000	1.01490624
0.13385827	0.00000000	0.00026098	0.00000000	1.01477700
0.14173228	0.00000000	0.00031746	0.00000000	1.01465364
0.14960630	0.00000000	0.00037728	0.00000000	1.01453695
0.15748031	0.00000000	0.00044012	0.00000000	1.01442764
0.16535433	0.00000000	0.00050568	0.00000000	1.01432626
0.17322835	0.00000000	0.00057368	0.00000000	1.01423331
0.18110236	0.00000000	0.00064384	0.00000000	1.01414916
0.18897638	0.00000000	0.00071591	0.00000000	1.01407415
0.19685039	0.00000000	0.00078962	0.00000000	1.01400852
0.20472441	0.00000000	0.00086475	0.00000000	1.01395250
0.21259843	0.00000000	0.00094107	0.00000000	1.01390625
0.22047244	0.00000000	0.00101836	0.00000000	1.01386990
0.22834646	0.00000000	0.00109641	0.00000000	1.01384356
0.23622047	0.00000000	0.00117503	0.00000000	1.01382730
0.24409449	0.00000000	0.00125403	0.00000000	1.01382119
0.25196850	0.00000000	0.00133322	0.00000000	1.01382527
0.25984252	0.00000000	0.00141243	0.00000000	1.01383959
0.26771654	0.00000000	0.00149149	0.00000000	1.01386415
0.27559055	0.00000000	0.00157023	0.00000000	1.01389899
0.28346457	0.00000000	0.00164848	0.00000000	1.01394410
0.29133858	0.00000000	0.00172609	0.00000000	1.01399949
0.29921260	0.00000000	0.00180289	0.00000000	1.01406516
0.30708661	0.00000000	0.00187872	0.00000000	1.01414108
0.31496063	0.00000000	0.00195343	0.00000000	1.01422724
0.32283465	0.00000000	0.00202685	0.00000000	1.01432361
0.33070866	0.00000000	0.00209883	0.00000000	1.01443015
0.33858268	0.00000000	0.00216920	0.00000000	1.01454679
0.34645669	0.00000000	0.00223782	0.00000000	1.01467349
0.35433071	0.00000000	0.00230451	0.00000000	1.01481014
0.36220472	0.00000000	0.00236911	0.00000000	1.01495665
0.37007874	0.00000000	0.00243147	0.00000000	1.01511290
0.37795276	0.00000000	0.00249142	0.00000000	1.01527873
0.38582677	0.00000000	0.00254878	0.00000000	1.01545399
0.39370079	0.00000000	0.00260341	0.00000000	1.01563847
0.40157480	0.00000000	0.00265514	0.00000000	1.01583194
0.40944882	0.00000000	0.00270380	0.00000000	1.01603415
0.41732283	0.00000000	0.00274923	0.00000000	1.01624481
0.42519685	0.00000000	0.00279128	0.00000000	1.01646360
0.43307087	0.00000000	0.00282980	0.00000000	1.01669014
0.44094488	0.00000000	0.00286462	0.00000000	1.01692405
0.44881890	0.00000000	0.00289560	0.00000000	1.01716488
0.45669291	0.00000000	0.00292261	0.00000000	1.01741215
0.46456693	0.00000000	0.00294550	0.00000000	1.01766536
0.47244094	0.00000000	0.00296416	0.00000000	1.01792394
0.48031496	0.00000000	0.00297846	0.00000000	1.01818730
0.48818898	0.00000000	0.00298829	0.00000000	1.01845479
0.49606299	0.00000000	0.00299357	0.00000000	1.01872575
0.50393701	0.00000000	0.00299419	0.00000000	1.01899946
0.51181102	0.00000000	0.00299010	0.00000000	1.01927518
0.51968504	0.00000000	0.00298122	0.00000000	1.01955212
0.52755906	0.00000000	0.00296752	0.00000000	1.01982946
0.53543307	0.00000000	0.00294896	0.00000000	1.02010638
0.54330709	0.00000000	0.00292554	0.00000000	1.02038199
0.55118110	0.00000000	0.00289725	0.00000000	1.02065542
0.55905512	0.00000000	0.00286413	0.00000000	1.02092576
0.56692913	0.00000000	0.00282621	0.00000000	1.02119208
0.57480315	0.00000000	0.00278355	0.00000000	1.02145346
0.58267717	0.00000000	0.00273623	0.00000000	1.02170896
0.59055118	0.00000000	0.00268437	0.00000000	1.02195766
0.59842520	0.00000000	0.00262806	0.00000000	1.02219862
0.60629921	0.00000000	0.00256747	0.00000000	1.02243095
0.61417323	0.00000000	0.00250275	0.00000000	1.02265374
0.62204724	0.00000000	0.00243408	0.00000000	1.02286613
0.62992126	0.00000000	0.00236167	0.00000000	1.02306727
0.63779528	0.00000000	0.00228573	0.00000000	1.02325637
0.64566929	0.00000000	0.00220652	0.00000000	1.02343267
0.65354331	0.00000000	0.00212429	0.00000000	1.02359545
0.66141732	0.00000000	0.00203932	0.00000000	1.02374406
0.66929134	0.00000000	0.00195190	0.00000000	1.02387791
0.67716535	0.00000000	0.00186234	0.00000000	1.02399646
0.68503937	0.00000000	0.00177097	0.00000000	1.02409925
0.69291339	0.00000000	0.00167812	0.00000000	1.02418589
0.70078740	0.00000000	0.00158415	0.00000000	1.02425609
0.70866142	0.00000000	0.00148940	0.00000000	1.02430962
0.71653543	0.00000000	0.00139425	0.00000000	1.02434635
0.72440945	0.00000000	0.00129906	0.00000000	1.02436624
0.73228346	0.00000000	0.00120421	0.00000000	1.02436932
0.74015748	0.00000000	0.00111008	0.00000000	1.02435576
0.74803150	0.00000000	0.00101705	0.00000000	1.02432578
0.75590551	0.00000000	0.00092549	0.00000000	1.02427973
0.76377953	0.00000000	0.00083578	0.00000000	1.02421804
0.77165354	0.00000000	0.00074827	0.00000000	1.02414125
0.77952756	0.00000000	0.00066334	0.00000000	1.02404997
0.78740157	0.00000000	0.00058132	0.00000000	1.02394494
0.79527559	0.00000000	0.00050256	0.00000000	1.02382697
0.80314961	0.00000000	0.00042737	0.00000000	1.02369696
0.81102362	0.00000000	0.00035606	0.00000000	1.02355592
0.81889764	0.00000000	0.00028892	0.00000000	1.02340492
0.82677165	0.00000000	0.00022621	0.00000000	1.02324514
0.83464567	0.00000000	0.00016817	0.00000000	1.02307782
0.84251969	0.00000000	0.00011502	0.00000000	1.02290428
0.85039370	0.00000000	0.00006696	0.00000000	1.02272592
0.85826772	0.00000000	0.00002415	0.00000000	1.02254421
0.86614173	0.00000000	-0.00001328	0.00000000	1.02236069
0.87401575	0.00000000	-0.00004524	0.00000000	1.02217696
0.88188976	0.00000000	-0.00007166	0.00000000	1.02199470
0.88976378	0.00000000	-0.00009254	0.00000000	1.02181562
0.89763780	0.00000000	-0.00010791	0.00000000	1.02164152
0.90551181	0.00000000	-0.00011785	0.00000000	1.02147423
0.91338583	0.00000000	-0.00012252	0.00000000	1.02131565
0.92125984	0.00000000	-0.00012213	0.00000000	1.02116770
0.92913386	0.00000000	-0.00011701	0.00000000	1.02103236
0.93700787	0.00000000	-0.00010759	0.00000000	1.02091158
0.94488189	0.00000000	-0.00009443	0.00000000	1.02080730
0.95275591	0.00000000	-0.00007829	0.00000000	1.02072136
0.96062992	0.00000000	-0.00006017	0.00000000	1.02065536
0.96850394	0.00000000	-0.00004138	0.00000000	1.02061045
0.97637795	0.00000000	-0.00002369	0.00000000	1.02058688
0.98425197	0.00000000	-0.00000936	0.00000000	1.02058321
0.99212598	0.00000000	-0.00000096	0.00000000	1.02059478
1.00000000	0.00000000	0.00000000	0.00000000	1.02061124
0.00000000	0.00787402	0.00000000	0.00000375	1.01638455
0.00787402	0.00787402	0.00000375	-0.00000375	1.01638455
0.01574803	0.00787402	0.00001437	-0.00001062	1.01639248
0.02362205	0.00787402	0.00002753	-0.00001315	1.01638135
0.03149606	0.00787402	0.00003973	-0.00001220	1.01634583
0.03937008	0.00787402	0.00004872	-0.00000898	1.01628630
0.04724409	0.00787402	0.00005310	-0.00000438	1.01620545
0.05511811	0.00787402	0.00005211	0.00000099	1.01610674
0.06299213	0.00787402	0.00004536	0.00000675	1.01599370
0.07086614	0.00787402	0.00003272	0.00001265	1.01586964
0.07874016	0.00787402	0.00001420	0.00001852	1.01573757
0.08661417	0.00787402	-0.00001004	0.00002424	1.01560019
0.09448819	0.00787402	-0.00003979	0.00002975	1.01545985
0.10236220	0.00787402	-0.00007478	0.00003499	1.01531861
0.11023622	0.00787402	-0.00011472	0.00003994	1.01517827
0.11811024	0.00787402	-0.00015928	0.00004456	1.01504037
0.12598425	0.00787402	-0.00020814	0.00004886	1.01490624
0.13385827	0.00787402	-0.00026098	0.00005284	1.01477700
0.14173228	0.00787402	-0.00031746	0.00005649	1.01465364
0.14960630	0.00787402	-0.00037728	0.00005982	1.01453695
0.15748031	0.00787402	-0.00044012	0.00006284	1.01442764
0.16535433	0.00787402	-0.00050568	0.00006556	1.01432626
0.17322835	0.00787402	-0.00057368	0.00006800	1.01423331
0.18110236	0.00787402	-0.00064384	0.00007017	1.01414916
0.18897638	0.00787402	-0.00071591	0.00007207	1.01407415
0.19685039	0.00787402	-0.00078962	0.00007372	1.01400852
0.20472441	0.00787402	-0.00086475	0.00007513	1.01395250
0.21259843	0.00787402	-0.00094107	0.00007632	1.01390625
0.22047244	0.00787402	-0.00101836	0.00007729	1.01386990
0.22834646	0.00787402	-0.00109641	0.00007805	1.01384356
0.23622047	0.00787402	-0.00117503	0.00007862	1.01382730
0.24409449	0.00787402	-0.00125403	0.00007900	1.01382119
0.25196850	0.00787402	-0.00133322	0.00007920	1.01382527
0.25984252	0.00787402	-0.00141243	0.00007921	1.01383959
0.26771654	0.00787402	-0.00149149	0.00007906	1.01386415
0.27559055	0.00787402	-0.00157023	0.00007874	1.01389899
0.28346457	0.00787402	-0.00164848	0.00007825	1.01394410
0.29133858	0.00787402	-0.00172609	0.00007761	1.01399949
0.29921260	0.00787402	-0.00180289	0.00007680	1.01406516
0.30708661	0.00787402	-0.00187872	0.00007583	1.01414108
0.31496063	0.00787402	-0.00195343	0.00007471	1.01422724
0.32283465	0.00787402	-0.00202685	0.00007342	1.01432361
0.33070866	0.00787402	-0.00209883	0.00007198	1.01443015
0.33858268	0.00787402	-0.00216920	0.00007038	1.01454679
0.34645669	0.00787402	-0.00223782	0.00006862	1.01467349
0.35433071	0.00787402	-0.00230451	0.00006669	1.01481014
0.36220472	0.00787402	-0.00236911	0.00006461	1.01495665
0.37007874	0.00787402	-0.00243147	0.00006236	1.01511290
0.37795276	0.00787402	-0.00249142	0.00005995	1.01527873
0.38582677	0.00787402	-0.00254878	0.00005737	1.01545399
0.39370079	0.00787402	-0.00260341	0.00005463	1.01563847
0.40157480	0.00787402	-0.00265514	0.00005173	1.01583194
0.40944882	0.00787402	-0.00270380	0.00004866	1.01603415
0.41732283	0.00787402	-0.00274923	0.00004544	1.01624481
0.42519685	0.00787402	-0.00279128	0.00004205	1.01646360
0.43307087	0.00787402	-0.00282980	0.00003851	1.01669014
0.44094488	0.00787402	-0.00286462	0.00003482	1.01692405
0.44881890	0.00787402	-0.00289560	0.00003099	1.01716488
0.45669291	0.00787402	-0.00292261	0.00002701	1.01741215
0.46456693	0.00787402	-0.00294550	0.00002290	1.01766536
0.47244094	0.00787402	-0.00296416	0.00001866	1.01792394
0.48031496	0.00787402	-0.00297846	0.00001430	1.01818730
0.48818898	0.00787402	-0.00298829	0.00000984	1.01845479
0.49606299	0.00787402	-0.00299357	0.00000527	1.01872575
0.50393701	0.00787402	-0.00299419	0.00000063	1.01899946
0.51181102	0.00787402	-0.00299010	-0.00000410	1.01927518
0.51968504	0.00787402	-0.00298122	-0.00000888	1.01955212
0.52755906	0.00787402	-0.00296752	-0.00001370	1.01982946
0.53543307	0.00787402	-0.00294896	-0.00001856	1.02010638
0.54330709	0.00787402	-0.00292554	-0.00002342	1.02038199
0.55118110	0.00787402	-0.00289725	-0.00002828	1.02065542
0.55905512	0.00787402	-0.00286413	-0.00003312	1.02092576
0.56692913	0.00787402	-0.00282621	-0.00003792	1.02119208
0.57480315	0.00787402	-0.00278355	-0.00004266	1.02145346
0.58267717	0.00787402	-0.00273623	-0.00004731	1.02170896
0.59055118	0.00787402	-0.00268437	-0.00005187	1.02195766
0.59842520	0.00787402	-0.00262806	-0.00005630	1.02219862
0.60629921	0.00787402	-0.00256747	-0.00006059	1.02243095
0.61417323	0.00787402	-0.00250275	-0.00006472	1.02265374
0.62204724	0.00787402	-0.00243408	-0.00006867	1.02286613
0.62992126	0.00787402	-0.00236167	-0.00007241	1.02306727
0.63779528	0.00787402	-0.00228573	-0.00007593	1.02325637
0.64566929	0.00787402	-0.00220652	-0.00007921	1.02343267
0.65354331	0.00787402	-0.00212429	-0.00008223	1.02359545
0.66141732	0.00787402	-0.00203932	-0.00008497	1.02374406
0.66929134	0.00787402	-0.00195190	-0.00008742	1.02387791
0.67716535	0.00787402	-0.00186234	-0.00008956	1.02399646
0.68503937	0.00787402	-0.00177097	-0.00009137	1.02409925
0.69291339	0.00787402	-0.00167812	-0.00009285	1.02418589
0.70078740	0.00787402	-0.00158415	-0.00009398	1.02425609
0.70866142	0.00787402	-0.00148940	-0.00009475	1.02430962
0.71653543	0.00787402	-0.00139425	-0.00009515	1.02434635
0.72440945	0.00787402	-0.00129906	-0.00009519	1.02436624
0.73228346	0.00787402	-0.00120421	-0.00009485	1.02436932
0.74015748	0.00787402	-0.00111008	-0.00009413	1.02435576
0.74803150	0.00787402	-0.00101705	-0.00009303	1.02432578
0.75590551	0.00787402	-0.00092549	-0.00009156	1.02427973
0.76377953	0.00787402	-0.00083578	-0.00008971	1.02421804
0.77165354	0.00787402	-0.00074827	-0.00008750	1.02414125
0.77952756	0.00787402	-0.00066334	-0.00008493	1.02404997
0.78740157	0.00787402	-0.00058132	-0.00008202	1.02394494
0.79527559	0.00787402	-0.00050256	-0.00007876	1.02382697
0.80314961	0.00787402	-0.00042737	-0.00007519	1.02369696
0.81102362	0.00787402	-0.00035606	-0.00007131	1.02355592
0.81889764	0.00787402	-0.00028892	-0.00006714	1.02340492
0.82677165	0.00787402	-0.00022621	-0.00006271	1.02324514
0.83464567	0.00787402	-0.00016817	-0.00005804	1.02307782
0.84251969	0.00787402	-0.00011502	-0.00005314	1.02290428
0.85039370	0.00787402	-0.00006696	-0.00004806	1.02272592
0.85826772	0.00787402	-0.00002415	-0.00004281	1.02254421
0.86614173	0.00787402	0.00001328	-0.00003743	1.02236069
0.87401575	0.00787402	0.00004524	-0.00003196	1.02217696
0.88188976	0.00787402	0.00007166	-0.00002643	1.02199470
0.88976378	0.00787402	0.00009254	-0.00002088	1.02181562
0.89763780	0.00787402	0.00010791	-0.00001537	1.02164152
0.90551181	0.00787402	0.00011785	-0.00000994	1.02147423
0.91338583	0.00787402	0.00012252	-0.00000467	1.02131565
0.92125984	0.00787402	0.00012213	0.00000038	1.02116770
0.92913386	0.00787402	0.00011701	0.00000512	1.02103236
0.93700787	0.00787402	0.00010759	0.00000942	1.02091158
0.94488189	0.00787402	0.00009443	0.00001316	1.02080730
0.95275591	0.00787402	0.00007829	0.00001614	1.02072136
0.96062992	0.00787402	0.00006017	0.00001812	1.02065536
0.96850394	0.00787402	0.00004138	0.00001878	1.02061045
0.97637795	0.00787402	0.00002369	0.00001769	1.02058688
0.98425197	0.00787402	0.00000936	0.00001433	1.02058321
0.99212598	0.00787402	0.00000096	0.00000840	1.02059478
1.00000000	0.00787402	0.00000000	0.00000096	1.02061124
0.00000000	0.01574803	0.00000000	0.00001438	1.01637662
0.00787402	0.01574803	0.00001063	-0.00001438	1.01637662
0.01574803	0.01574803	0.00003181	-0.00003180	1.01638456
0.02362205	0.01574803	0.00005557	-0.00003691	1.01637233
0.03149606	0.01574803	0.00007555	-0.00003219	1.01633884
0.03937008	0.01574803	0.00008708	-0.00002051	1.01628480
0.04724409	0.01574803	0.00008695	-0.00000425	1.01621218
0.05511811	0.01574803	0.00007309	0.00001485	1.01612359
0.06299213	0.01574803	0.00004430	0.00003554	1.01602186
0.07086614	0.01574803	0.00000003	0.00005693	1.01590976
0.07874016	0.01574803	-0.00005985	0.00007840	1.01578992
0.08661417	0.01574803	-0.00013513	0.00009952	1.01566472
0.09448819	0.01574803	-0.00022535	0.00011998	1.01553631
0.10236220	0.01574803	-0.00032991	0.00013956	1.01540659
0.11023622	0.01574803	-0.00044811	0.00015814	1.01527726
0.11811024	0.01574803	-0.00057915	0.00017561	1.01514978
0.12598425	0.01574803	-0.00072221	0.00019192	1.01502543
0.13385827	0.01574803	-0.00087642	0.00020705	1.01490533
0.14173228	0.01574803	-0.00104093	0.00022100	1.01479041
0.14960630	0.01574803	-0.00121489	0.00023378	1.01468150
0.15748031	0.01574803	-0.00139745	0.00024540	1.01457929
0.16535433	0.01574803	-0.00158779	0.00025591	1.01448435
0.17322835	0.01574803	-0.00178513	0.00026534	1.01439719
0.18110236	0.01574803	-0.00198869	0.00027373	1.01431822
0.18897638	0.01574803	-0.00219774	0.00028112	1.01424777
0.19685039	0.01574803	-0.00241156	0.00028754	1.01418613
0.20472441	0.01574803	-0.00262949	0.00029306	1.01413353
0.21259843	0.01574803	-0.00285086	0.00029769	1.01409016
0.22047244	0.01574803	-0.00307505	0.00030148	1.01405617
0.22834646	0.01574803	-0.00330146	0.00030447	1.01403169
0.23622047	0.01574803	-0.00352952	0.00030668	1.01401681
0.24409449	0.01574803	-0.00375867	0.00030815	1.01401162
0.25196850	0.01574803	-0.00398838	0.00030890	1.01401616
0.25984252	0.01574803	-0.00421811	0.00030895	1.01403050
0.26771654	0.01574803	-0.00444737	0.00030832	1.01405466
0.27559055	0.01574803	-0.00467566	0.00030703	1.01408867
0.28346457	0.01574803	-0.00490249	0.00030508	1.01413255
0.29133858	0.01574803	-0.00512737	0.00030250	1.01418630
0.29921260	0.01574803	-0.00534985	0.00029928	1.01424993
0.30708661	0.01574803	-0.00556944	0.00029542	1.01432342
0.31496063	0.01574803	-0.00578568	0.00029095	1.01440675
0.32283465	0.01574803	-0.00599810	0.00028585	1.01449990
0.33070866	0.01574803	-0.00620623	0.00028012	1.01460283
0.33858268	0.01574803	-0.00640961	0.00027376	1.01471547
0.34645669	0.01574803	-0.00660778	0.00026678	1.01483777
0.35433071	0.01574803	-0.00680025	0.00025917	1.01496964
0.36220472	0.01574803	-0.00698656	0.00025092	1.01511098
0.37007874	0.01574803	-0.00716624	0.00024204	1.01526166
0.37795276	0.01574803	-0.00733882	0.00023253	1.01542154
0.38582677	0.01574803	-0.00750383	0.00022238	1.01559045
0.39370079	0.01574803	-0.00766080	0.00021160	1.01576820
0.40157480	0.01574803	-0.00780925	0.00020019	1.01595456
0.40944882	0.01574803	-0.00794875	0.00018815	1.01614927
0.41732283	0.01574803	-0.00807881	0.00017550	1.01635207
0.42519685	0.01574803	-0.00819901	0.00016225	1.01656262
0.43307087	0.01574803	-0.00830890	0.00014840	1.01678057
0.44094488	0.01574803	-0.00840806	0.00013398	1.01700554
0.44881890	0.01574803	-0.00849607	0.00011900	1.01723710
0.45669291	0.01574803	-0.00857256	0.00010349	1.01747479
0.46456693	0.01574803	-0.00863714	0.00008748	1.01771811
0.47244094	0.01574803	-0.00868947	0.00007098	1.01796652
0.48031496	0.01574803	-0.00872921	0.00005405	1.01821945
0.48818898	0.01574803	-0.00875609	0.00003671	1.01847628
0.49606299	0.01574803	-0.00876983	0.00001901	1.01873636
0.50393701	0.01574803	-0.00877020	0.00000100	1.01899902
0.51181102	0.01574803	-0.00875701	-0.00001729	1.01926352
0.51968504	0.01574803	-0.00873010	-0.00003578	1.01952913
0.52755906	0.01574803	-0.00868936	-0.00005444	1.01979506
0.53543307	0.01574803	-0.00863473	-0.00007319	1.02006051
0.54330709	0.01574803	-0.00856618	-0.00009197	1.02032466
0.55118110	0.01574803	-0.00848373	-0.00011073	1.02058664
0.55905512	0.01574803	-0.00838748	-0.00012938	1.02084560
0.56692913	0.01574803	-0.00827755	-0.00014785	1.02110066
0.57480315	0.01574803	-0.00815412	-0.00016609	1.02135094
0.58267717	0.01574803	-0.00801744	-0.00018399	1.02159555
0.59055118	0.01574803	-0.00786780	-0.00020151	1.02183360
0.59842520	0.01574803	-0.00770555	-0.00021854	1.02206422
0.60629921	0.01574803	-0.00753112	-0.00023503	1.02228654
0.61417323	0.01574803	-0.00734496	-0.00025088	1.02249971
0.62204724	0.01574803	-0.00714760	-0.00026603	1.02270291
0.62992126	0.01574803	-0.00693963	-0.00028039	1.02289534
0.63779528	0.01574803	-0.00672167	-0.00029389	1.02307626
0.64566929	0.01574803	-0.00649441	-0.00030647	1.02324494
0.65354331	0.01574803	-0.00625860	-0.00031804	1.02340071
0.66141732	0.01574803	-0.00601501	-0.00032856	1.02354295
0.66929134	0.01574803	-0.00576449	-0.00033794	1.02367111
0.67716535	0.01574803	-0.00550790	-0.00034614	1.02378469
0.68503937	0.01574803	-0.00524616	-0.00035311	1.02388326
0.69291339	0.01574803	-0.00498022	-0.00035879	1.02396646
0.70078740	0.01574803	-0.00471106	-0.00036314	1.02403401
0.70866142	0.01574803	-0.00443968	-0.00036613	1.02408572
0.71653543	0.01574803	-0.00416712	-0.00036772	1.02412146
0.72440945	0.01574803	-0.00389440	-0.00036790	1.02414120
0.73228346	0.01574803	-0.00362259	-0.00036666	1.02414501
0.74015748	0.01574803	-0.00335275	-0.00036397	1.02413304
0.74803150	0.01574803	-0.00308593	-0.00035985	1.02410551
0.75590551	0.01574803	-0.00282320	-0.00035429	1.02406277
0.76377953	0.01574803	-0.00256558	-0.00034733	1.02400524
0.77165354	0.01574803	-0.00231412	-0.00033897	1.02393343
0.77952756	0.01574803	-0.00206980	-0.00032925	1.02384796
0.78740157	0.01574803	-0.00183361	-0.00031821	1.02374952
0.79527559	0.01574803	-0.00160647	-0.00030590	1.02363891
0.80314961	0.01574803	-0.00138929	-0.00029237	1.02351699
0.81102362	0.01574803	-0.00118291	-0.00027769	1.02338472
0.81889764	0.01574803	-0.00098813	-0.00026192	1.02324314
0.82677165	0.01574803	-0.00080569	-0.00024516	1.02309337
0.83464567	0.01574803	-0.00063625	-0.00022748	1.02293660
0.84251969	0.01574803	-0.00048042	-0.00020898	1.02277409
0.85039370	0.01574803	-0.00033872	-0.00018976	1.02260719
0.85826772	0.01574803	-0.00021158	-0.00016995	1.02243727
0.86614173	0.01574803	-0.00009935	-0.00014966	1.02226581
0.87401575	0.01574803	-0.00000227	-0.00012904	1.02209433
0.88188976	0.01574803	0.00007953	-0.00010823	1.02192438
0.88976378	0.01574803	0.00014606	-0.00008740	1.02175761
0.89763780	0.01574803	0.00019743	-0.00006674	1.02159567
0.90551181	0.01574803	0.00023396	-0.00004646	1.02144027
0.91338583	0.01574803	0.00025610	-0.00002681	1.02129316
0.92125984	0.01574803	0.00026456	-0.00000807	1.02115608
0.92913386	0.01574803	0.00026025	0.00000943	1.02103079
0.93700787	0.01574803	0.00024440	0.00002527	1.02091901
0.94488189	0.01574803	0.00021861	0.00003895	1.02082239
0.95275591	0.01574803	0.00018489	0.00004986	1.02074242
0.96062992	0.01574803	0.00014580	0.00005722	1.02068031
0.96850394	0.01574803	0.00010449	0.00006009	1.02063682
0.97637795	0.01574803	0.00006483	0.00005735	1.02061191
0.98425197	0.01574803	0.00003126	0.00004791	1.02060437
0.99212598	0.01574803	0.00000838	0.00003128	1.02061123
1.00000000	0.01574803	0.00000000	0.00000934	1.02062771
0.00000000	0.02362205	0.00000000	0.00002760	1.01638775
0.00787402	0.02362205	0.00001322	-0.00002760	1.01638775
0.01574803	0.02362205	0.00003705	-0.00005562	1.01639682
0.02362205	0.02362205	0.00006101	-0.00006086	1.01638455
0.03149606	0.02362205	0.00007727	-0.00004844	1.01635241
0.03937008	0.02362205	0.00007994	-0.00002318	1.01630188
0.04724409	0.02362205	0.00006477	0.00001092	1.01623486
0.05511811	0.02362205	0.00002889	0.00005074	1.01615357
0.06299213	0.02362205	-0.00002953	0.00009396	1.01606038
0.07086614	0.02362205	-0.00011142	0.00013883	1.01595764
0.07874016	0.02362205	-0.00021710	0.00018408	1.01584762
0.08661417	0.02362205	-0.00034637	0.00022879	1.01573245
0.09448819	0.02362205	-0.00049869	0.00027230	1.01561405
0.10236220	0.02362205	-0.00067325	0.00031412	1.01549417
0.11023622	0.02362205	-0.00086903	0.00035392	1.01537436
0.11811024	0.02362205	-0.00108491	0.00039149	1.01525602
0.12598425	0.02362205	-0.00131966	0.00042667	1.01514035
0.13385827	0.02362205	-0.00157201	0.00045940	1.01502841
0.14173228	0.02362205	-0.00184066	0.00048965	1.01492113
0.14960630	0.02362205	-0.00212431	0.00051743	1.01481929
0.15748031	0.02362205	-0.00242166	0.00054276	1.01472359
0.16535433	0.02362205	-0.00273145	0.00056570	1.01463460
0.17322835	0.02362205	-0.00305243	0.00058632	1.01455282
0.18110236	0.02362205	-0.00338339	0.00060470	1.01447866
0.18897638	0.02362205	-0.00372318	0.00062090	1.01441249
0.19685039	0.02362205	-0.00407065	0.00063502	1.01435460
0.20472441	0.02362205	-0.00442473	0.00064714	1.01430523
0.21259843	0.02362205	-0.00478437	0.00065733	1.01426458
0.22047244	0.02362205	-0.00514856	0.00066567	1.01423283
0.22834646	0.02362205	-0.00551633	0.00067224	1.01421011
0.23622047	0.02362205	-0.00588674	0.00067710	1.01419653
0.24409449	0.02362205	-0.00625889	0.00068030	1.01419218
0.25196850	0.02362205	-0.00663190	0.00068191	1.01419714
0.25984252	0.02362205	-0.00700491	0.00068196	1.01421146
0.26771654	0.02362205	-0.00737709	0.00068050	1.01423519
0.27559055	0.02362205	-0.00774762	0.00067757	1.01426836
0.28346457	0.02362205	-0.00811571	0.00067317	1.01431099
0.29133858	0.02362205	-0.00848057	0.00066735	1.01436311
0.29921260	0.02362205	-0.00884141	0.00066012	1.01442470
0.30708661	0.02362205	-0.00919746	0.00065148	1.01449578
0.31496063	0.02362205	-0.00954796	0.00064145	1.01457631
0.32283465	0.02362205	-0.00989214	0.00063003	1.01466628
0.33070866	0.02362205	-0.01022924	0.00061721	1.01476565
0.33858268	0.02362205	-0.01055849	0.00060301	1.01487436
0.34645669	0.02362205	-0.01087913	0.00058742	1.01499236
0.35433071	0.02362205	-0.01119040	0.00057044	1.01511955
0.36220472	0.02362205	-0.01149154	0.00055206	1.01525583
0.37007874	0.02362205	-0.01178178	0.00053228	1.01540109
0.37795276	0.02362205	-0.01206036	0.00051111	1.01555519
0.38582677	0.02362205	-0.01232653	0.00048855	1.01571795
0.39370079	0.02362205	-0.01257953	0.00046460	1.01588919
0.40157480	0.02362205	-0.01281862	0.00043928	1.01606869
0.40944882	0.02362205	-0.01304306	0.00041259	1.01625620
0.41732283	0.02362205	-0.01325212	0.00038457	1.01645144
0.42519685	0.02362205	-0.01344509	0.00035522	1.01665411
0.43307087	0.02362205	-0.01362128	0.00032460	1.01686386
0.44094488	0.02362205	-0.01378003	0.00029273	1.01708032
0.44881890	0.02362205	-0.01392068	0.00025965	1.01730308
0.45669291	0.02362205	-0.01404261	0.00022543	1.01753168
0.46456693	0.02362205	-0.01414525	0.00019012	1.01776565
0.47244094	0.02362205	-0.01422806	0.00015379	1.01800447
0.48031496	0.02362205	-0.01429051	0.00011651	1.01824758
0.48818898	0.02362205	-0.01433217	0.00007837	1.01849439
0.49606299	0.02362205	-0.01435262	0.00003947	1.01874428
0.50393701	0.02362205	-0.01435152	-0.00000011	1.01899659
0.51181102	0.02362205	-0.01432856	-0.00004024	1.01925064
0.51968504	0.02362205	-0.01428352	-0.00008082	1.01950569
0.52755906	0.02362205	-0.01421624	-0.00012172	1.01976101
0.53543307	0.02362205	-0.01412662	-0.00016280	1.02001582
0.54330709	0.02362205	-0.01401466	-0.00020394	1.02026933
0.55118110	0.02362205	-0.01388040	-0.00024498	1.02052074
0.55905512	0.02362205	-0.01372399	-0.00028578	1.02076920
0.56692913	0.02362205	-0.01354566	-0.00032618	1.02101388
0.57480315	0.02362205	-0.01334572	-0.00036603	1.02125395
0.58267717	0.02362205	-0.01312457	-0.00040515	1.02148854
0.59055118	0.02362205	-0.01288268	-0.00044339	1.02171682
0.59842520	0.02362205	-0.01262065	-0.00048058	1.02193794
0.60629921	0.02362205	-0.01233913	-0.00051655	1.02215110
0.61417323	0.02362205	-0.01203888	-0.00055113	1.02235547
0.62204724	0.02362205	-0.01172074	-0.00058416	1.02255027
0.62992126	0.02362205	-0.01138565	-0.00061548	1.02273475
0.63779528	0.02362205	-0.01103461	-0.00064492	1.02290820
0.64566929	0.02362205	-0.01066874	-0.00067234	1.02306992
0.65354331	0.02362205	-0.01028921	-0.00069758	1.02321929
0.66141732	0.02362205	-0.00989726	-0.00072050	1.02335573
0.66929134	0.02362205	-0.00949423	-0.00074097	1.02347870
0.67716535	0.02362205	-0.00908150	-0.00075887	1.02358774
0.68503937	0.02362205	-0.00866053	-0.00077408	1.02368244
0.69291339	0.02362205	-0.00823282	-0.00078650	1.02376248
0.70078740	0.02362205	-0.00779993	-0.00079603	1.02382759
0.70866142	0.02362205	-0.00736344	-0.00080262	1.02387759
0.71653543	0.02362205	-0.00692498	-0.00080618	1.02391238
0.72440945	0.02362205	-0.00648620	-0.00080668	1.02393193
0.73228346	0.02362205	-0.00604877	-0.00080408	1.02393632
0.74015748	0.02362205	-0.00561437	-0.00079837	1.02392570
0.74803150	0.02362205	-0.00518466	-0.00078955	1.02390030
0.75590551	0.02362205	-0.00476133	-0.00077763	1.02386045
0.76377953	0.02362205	-0.00434600	-0.00076265	1.02380656
0.77165354	0.02362205	-0.00394030	-0.00074466	1.02373915
0.77952756	0.02362205	-0.00354582	-0.00072374	1.02365880
0.78740157	0.02362205	-0.00316407	-0.00069996	1.02356618
0.79527559	0.02362205	-0.00279654	-0.00067343	1.02346206
0.80314961	0.02362205	-0.00244465	-0.00064427	1.02334727
0.81102362	0.02362205	-0.00210971	-0.00061262	1.02322275
0.81889764	0.02362205	-0.00179300	-0.00057864	1.02308948
0.82677165	0.02362205	-0.00149565	-0.00054251	1.02294854
0.83464567	0.02362205	-0.00121871	-0.00050441	1.02280106
0.84251969	0.02362205	-0.00096313	-0.00046456	1.02264827
0.85039370	0.02362205	-0.00072970	-0.00042319	1.02249142
0.85826772	0.02362205	-0.00051911	-0.00038055	1.02233185
0.86614173	0.02362205	-0.00033186	-0.00033691	1.02217094
0.87401575	0.02362205	-0.00016830	-0.00029259	1.02201012
0.88188976	0.02362205	-0.00002862	-0.00024791	1.02185089
0.88976378	0.02362205	0.00008721	-0.00020324	1.02169475
0.89763780	0.02362205	0.00017946	-0.00015899	1.02154327
0.90551181	0.02362205	0.00024861	-0.00011562	1.02139803
0.91338583	0.02362205	0.00029545	-0.00007365	1.02126063
0.92125984	0.02362205	0.00032109	-0.00003371	1.02113266
0.92913386	0.02362205	0.00032699	0.00000352	1.02101570
0.93700787	0.02362205	0.00031508	0.00003718	1.02091128
0.94488189	0.02362205	0.00028774	0.00006629	1.02082082
0.95275591	0.02362205	0.00024796	0.00008963	1.02074560
0.96062992	0.02362205	0.00019938	0.00010580	1.02068664
0.96850394	0.02362205	0.00014635	0.00011312	1.02064459
0.97637795	0.02362205	0.00009394	0.00010976	1.02061959
0.98425197	0.02362205	0.00004786	0.00009399	1.02061112
0.99212598	0.02362205	0.00001429	0.00006485	1.02061808
1.00000000	0.02362205	0.00000000	0.00002363	1.02063935
0.00000000	0.03149606	0.00000000	0.00003995	1.01642339
0.00787402	0.03149606	0.00001235	-0.00003995	1.01642339
0.01574803	0.03149606	0.00003251	-0.00007578	1.01643042
0.02362205	0.03149606	0.00004885	-0.00007719	1.01641665
0.03149606	0.03149606	0.00005278	-0.00005237	1.01638436
0.03937008	0.03149606	0.00003785	-0.00000825	1.01633545
0.04724409	0.03149606	-0.00000069	0.00004946	1.01627182
0.05511811	0.03149606	-0.00006618	0.00011623	1.01619547
0.06299213	0.03149606	-0.00016078	0.00018857	1.01610844
0.07086614	0.03149606	-0.00028572	0.00026377	1.01601278
0.07874016	0.03149606	-0.00044144	0.00033980	1.01591047
0.08661417	0.03149606	-0.00062780	0.00041515	1.01580338
0.09448819	0.03149606	-0.00084419	0.00048869	1.01569324
0.10236220	0.03149606	-0.00108965	0.00055959	1.01558162
0.11023622	0.03149606	-0.00136299	0.00062726	1.01546995
0.11811024	0.03149606	-0.00166280	0.00069130	1.01535952
0.12598425	0.03149606	-0.00198756	0.00075143	1.01525145
0.13385827	0.03149606	-0.00233565	0.00080750	1.01514674
0.14173228	0.03149606	-0.00270542	0.00085942	1.01504628
0.14960630	0.03149606	-0.00309518	0.00090720	1.01495081
0.15748031	0.03149606	-0.00350327	0.00095085	1.01486102
0.16535433	0.03149606	-0.00392802	0.00099045	1.01477746