VARIABLES="U","Y"
ZONE F=POINT
I=128
0.00299214	0.00000000
-0.00299214	0.00787402
-0.00876360	0.01574803
-0.01434004	0.02362205
-0.01973815	0.03149606
-0.02497359	0.03937008
-0.03006105	0.04724409
-0.03501434	0.05511811
-0.03984639	0.06299213
-0.04456935	0.07086614
-0.04919462	0.07874016
-0.05373287	0.08661417
-0.05819410	0.09448819
-0.06258763	0.10236220
-0.06692216	0.11023622
-0.07120576	0.11811024
-0.07544591	0.12598425
-0.07964946	0.13385827
-0.08382270	0.14173228
-0.08797129	0.14960630
-0.09210034	0.15748031
-0.09621433	0.16535433
-0.10031714	0.17322835
-0.10441203	0.18110236
-0.10850164	0.18897638
-0.11258797	0.19685039
-0.11667235	0.20472441
-0.12075545	0.21259843
-0.12483722	0.22047244
-0.12891695	0.22834646
-0.13299317	0.23622047
-0.13706367	0.24409449
-0.14112549	0.25196850
-0.14517491	0.25984252
-0.14920741	0.26771654
-0.15321768	0.27559055
-0.15719962	0.28346457
-0.16114633	0.29133858
-0.16505010	0.29921260
-0.16890243	0.30708661
-0.17269405	0.31496063
-0.17641492	0.32283465
-0.18005426	0.33070866
-0.18360057	0.33858268
-0.18704168	0.34645669
-0.19036481	0.35433071
-0.19355656	0.36220472
-0.19660305	0.37007874
-0.19948991	0.37795276
-0.20220241	0.38582677
-0.20472550	0.39370079
-0.20704394	0.40157480
-0.20914233	0.40944882
-0.21100528	0.41732283
-0.21261745	0.42519685
-0.21396370	0.43307087
-0.21502918	0.44094488
-0.21579947	0.44881890
-0.21626064	0.45669291
-0.21639941	0.46456693
-0.21620323	0.47244094
-0.21566042	0.48031496
-0.21476023	0.48818898
-0.21349296	0.49606299
-0.21185004	0.50393701
-0.20982410	0.51181102
-0.20740906	0.51968504
-0.20460012	0.52755906
-0.20139388	0.53543307
-0.19778832	0.54330709
-0.19378278	0.55118110
-0.18937803	0.55905512
-0.18457616	0.56692913
-0.17938058	0.57480315
-0.17379597	0.58267717
-0.16782816	0.59055118
-0.16148406	0.59842520
-0.15477152	0.60629921
-0.14769924	0.61417323
-0.14027655	0.62204724
-0.13251328	0.62992126
-0.12441957	0.63779528
-0.11600565	0.64566929
-0.10728158	0.65354331
-0.09825707	0.66141732
-0.08894114	0.66929134
-0.07934186	0.67716535
-0.06946605	0.68503937
-0.05931889	0.69291339
-0.04890361	0.70078740
-0.03822105	0.70866142
-0.02726925	0.71653543
-0.01604299	0.72440945
-0.00453331	0.73228346
0.00727306	0.74015748
0.01939420	0.74803150
0.03185364	0.75590551
0.04468093	0.76377953
0.05791230	0.77165354
0.07159130	0.77952756
0.08576937	0.78740157
0.10050648	0.79527559
0.11587162	0.80314961
0.13194321	0.81102362
0.14880940	0.81889764
0.16656809	0.82677165
0.18532678	0.83464567
0.20520204	0.84251969
0.22631854	0.85039370
0.24880766	0.85826772
0.27280546	0.86614173
0.29845005	0.87401575
0.32587817	0.88188976
0.35522108	0.88976378
0.38659950	0.89763780
0.42011789	0.90551181
0.45585785	0.91338583
0.49387095	0.92125984
0.53417102	0.92913386
0.57672628	0.93700787
0.62145163	0.94488189
0.66820146	0.95275591
0.71676371	0.96062992
0.76685575	0.96850394
0.81812292	0.97637795
0.87014053	0.98425197
0.92242043	0.99212598
0.97442315	1.00000000
