VARIABLES="U","Y"
ZONE F=POINT
I=64
0.00000000	0.00000000
-0.05816224	0.01587302
-0.10749486	0.03174603
-0.15063528	0.04761905
-0.19022791	0.06349206
-0.22794152	0.07936508
-0.26390494	0.09523810
-0.29692288	0.11111111
-0.32514376	0.12698413
-0.34674131	0.14285714
-0.36041724	0.15873016
-0.36570813	0.17460317
-0.36308513	0.19047619
-0.35382517	0.20634921
-0.33969238	0.22222222
-0.32254508	0.23809524
-0.30400292	0.25396825
-0.28525714	0.26984127
-0.26703151	0.28571429
-0.24964965	0.30158730
-0.23315081	0.31746032
-0.21740886	0.33333333
-0.20222869	0.34920635
-0.18741117	0.36507937
-0.17278872	0.38095238
-0.15823827	0.39682540
-0.14367996	0.41269841
-0.12906851	0.42857143
-0.11438246	0.44444444
-0.09961433	0.46031746
-0.08476300	0.47619048
-0.06982854	0.49206349
-0.05480929	0.50793651
-0.03970035	0.52380952
-0.02449321	0.53968254
-0.00917572	0.55555556
0.00626768	0.57142857
0.02185584	0.58730159
0.03761096	0.60317460
0.05355881	0.61904762
0.06972908	0.63492063
0.08615563	0.65079365
0.10287632	0.66666667
0.11993204	0.68253968
0.13736434	0.69841270
0.15521114	0.71428571
0.17349984	0.73015873
0.19223764	0.74603175
0.21139903	0.76190476
0.23091122	0.77777778
0.25063911	0.79365079
0.27037202	0.80952381
0.28981523	0.82539683
0.30858918	0.84126984
0.32624171	0.85714286
0.34229300	0.87301587
0.35640392	0.88888889
0.36898206	0.90476190
0.38295221	0.92063492
0.40740107	0.93650794
0.46160671	0.95238095
0.57310706	0.96825397
0.76068420	0.98412698
1.00000000	1.00000000
