VARIABLES="X","Y","U","V","P"
ZONE  F=POINT
I=64, J=64
0.00000000	0.00000000	0.00000000	0.00000000	1.04066606
0.01587302	0.00000000	0.00000000	0.00000000	1.04067530
0.03174603	0.00000000	0.00000000	0.00000000	1.04067989
0.04761905	0.00000000	0.00000000	0.00000000	1.04065098
0.06349206	0.00000000	0.00000000	0.00000000	1.04058270
0.07936508	0.00000000	0.00000000	0.00000000	1.04047721
0.09523810	0.00000000	0.00000000	0.00000000	1.04033975
0.11111111	0.00000000	0.00000000	0.00000000	1.04017578
0.12698413	0.00000000	0.00000000	0.00000000	1.03998955
0.14285714	0.00000000	0.00000000	0.00000000	1.03978344
0.15873016	0.00000000	0.00000000	0.00000000	1.03955806
0.17460317	0.00000000	0.00000000	0.00000000	1.03931266
0.19047619	0.00000000	0.00000000	0.00000000	1.03904574
0.20634921	0.00000000	0.00000000	0.00000000	1.03875576
0.22222222	0.00000000	0.00000000	0.00000000	1.03844166
0.23809524	0.00000000	0.00000000	0.00000000	1.03810345
0.25396825	0.00000000	0.00000000	0.00000000	1.03774247
0.26984127	0.00000000	0.00000000	0.00000000	1.03736177
0.28571429	0.00000000	0.00000000	0.00000000	1.03696625
0.30158730	0.00000000	0.00000000	0.00000000	1.03656289
0.31746032	0.00000000	0.00000000	0.00000000	1.03616085
0.33333333	0.00000000	0.00000000	0.00000000	1.03577145
0.34920635	0.00000000	0.00000000	0.00000000	1.03540807
0.36507937	0.00000000	0.00000000	0.00000000	1.03508581
0.38095238	0.00000000	0.00000000	0.00000000	1.03482095
0.39682540	0.00000000	0.00000000	0.00000000	1.03463015
0.41269841	0.00000000	0.00000000	0.00000000	1.03452946
0.42857143	0.00000000	0.00000000	0.00000000	1.03453311
0.44444444	0.00000000	0.00000000	0.00000000	1.03465223
0.46031746	0.00000000	0.00000000	0.00000000	1.03489349
0.47619048	0.00000000	0.00000000	0.00000000	1.03525786
0.49206349	0.00000000	0.00000000	0.00000000	1.03573955
0.50793651	0.00000000	0.00000000	0.00000000	1.03632531
0.52380952	0.00000000	0.00000000	0.00000000	1.03699414
0.53968254	0.00000000	0.00000000	0.00000000	1.03771767
0.55555556	0.00000000	0.00000000	0.00000000	1.03846109
0.57142857	0.00000000	0.00000000	0.00000000	1.03918483
0.58730159	0.00000000	0.00000000	0.00000000	1.03984690
0.60317460	0.00000000	0.00000000	0.00000000	1.04040580
0.61904762	0.00000000	0.00000000	0.00000000	1.04082378
0.63492063	0.00000000	0.00000000	0.00000000	1.04107011
0.65079365	0.00000000	0.00000000	0.00000000	1.04112412
0.66666667	0.00000000	0.00000000	0.00000000	1.04097744
0.68253968	0.00000000	0.00000000	0.00000000	1.04063513
0.69841270	0.00000000	0.00000000	0.00000000	1.04011545
0.71428571	0.00000000	0.00000000	0.00000000	1.03944817
0.73015873	0.00000000	0.00000000	0.00000000	1.03867159
0.74603175	0.00000000	0.00000000	0.00000000	1.03782866
0.76190476	0.00000000	0.00000000	0.00000000	1.03696274
0.77777778	0.00000000	0.00000000	0.00000000	1.03611373
0.79365079	0.00000000	0.00000000	0.00000000	1.03531493
0.80952381	0.00000000	0.00000000	0.00000000	1.03459113
0.82539683	0.00000000	0.00000000	0.00000000	1.03395800
0.84126984	0.00000000	0.00000000	0.00000000	1.03342264
0.85714286	0.00000000	0.00000000	0.00000000	1.03298497
0.87301587	0.00000000	0.00000000	0.00000000	1.03263970
0.88888889	0.00000000	0.00000000	0.00000000	1.03237844
0.90476190	0.00000000	0.00000000	0.00000000	1.03219170
0.92063492	0.00000000	0.00000000	0.00000000	1.03207048
0.93650794	0.00000000	0.00000000	0.00000000	1.03200695
0.95238095	0.00000000	0.00000000	0.00000000	1.03199373
0.96825397	0.00000000	0.00000000	0.00000000	1.03202051
0.98412698	0.00000000	0.00000000	0.00000000	1.03206714
1.00000000	0.00000000	0.00000000	0.00000000	1.03209200
0.00000000	0.01587302	0.00000000	0.00000000	1.04065677
0.01587302	0.01587302	0.00023796	-0.00023720	1.04066598
0.03174603	0.01587302	0.00081522	-0.00042580	1.04066952
0.04761905	0.01587302	0.00153759	-0.00048731	1.04063959
0.06349206	0.01587302	0.00223965	-0.00044978	1.04057260
0.07936508	0.01587302	0.00280647	-0.00035257	1.04047069
0.09523810	0.01587302	0.00317046	-0.00022712	1.04033848
0.11111111	0.01587302	0.00330030	-0.00009438	1.04018082
0.12698413	0.01587302	0.00318808	0.00003419	1.04000147
0.14285714	0.01587302	0.00283733	0.00015487	1.03980257
0.15873016	0.01587302	0.00225341	0.00026948	1.03958463
0.17460317	0.01587302	0.00143689	0.00038311	1.03934690
0.19047619	0.01587302	0.00038033	0.00050201	1.03908794
0.20634921	0.01587302	-0.00093187	0.00063181	1.03880623
0.22222222	0.01587302	-0.00252128	0.00077645	1.03850073
0.23809524	0.01587302	-0.00441195	0.00093763	1.03817131
0.25396825	0.01587302	-0.00662631	0.00111480	1.03781914
0.26984127	0.01587302	-0.00918131	0.00130531	1.03744697
0.28571429	0.01587302	-0.01208480	0.00150469	1.03705936
0.30158730	0.01587302	-0.01533250	0.00170674	1.03666285
0.31746032	0.01587302	-0.01890534	0.00190373	1.03626616
0.33333333	0.01587302	-0.02276740	0.00208643	1.03588017
0.34920635	0.01587302	-0.02686462	0.00224445	1.03551785
0.36507937	0.01587302	-0.03112435	0.00236649	1.03519396
0.38095238	0.01587302	-0.03545607	0.00244094	1.03492451
0.39682540	0.01587302	-0.03975329	0.00245644	1.03472600
0.41269841	0.01587302	-0.04389656	0.00240264	1.03461443
0.42857143	0.01587302	-0.04775751	0.00227094	1.03460412
0.44444444	0.01587302	-0.05120369	0.00205525	1.03470637
0.46031746	0.01587302	-0.05410382	0.00175268	1.03492817
0.47619048	0.01587302	-0.05633347	0.00136421	1.03527089
0.49206349	0.01587302	-0.05778057	0.00089515	1.03572925
0.50793651	0.01587302	-0.05835096	0.00035549	1.03629059
0.52380952	0.01587302	-0.05797352	-0.00023992	1.03693459
0.53968254	0.01587302	-0.05660495	-0.00087154	1.03763357
0.55555556	0.01587302	-0.05423392	-0.00151552	1.03835347
0.57142857	0.01587302	-0.05088443	-0.00214451	1.03905547
0.58730159	0.01587302	-0.04661809	-0.00272885	1.03969831
0.60317460	0.01587302	-0.04153497	-0.00323815	1.04024115
0.61904762	0.01587302	-0.03577259	-0.00364336	1.04064683
0.63492063	0.01587302	-0.02950272	-0.00391911	1.04088512
0.65079365	0.01587302	-0.02292557	-0.00404620	1.04093570
0.66666667	0.01587302	-0.01626127	-0.00401396	1.04079037
0.68253968	0.01587302	-0.00973885	-0.00382219	1.04045421
0.69841270	0.01587302	-0.00358301	-0.00348218	1.03994529
0.71428571	0.01587302	0.00200011	-0.00301649	1.03929296
0.73015873	0.01587302	0.00683695	-0.00245736	1.03853490
0.74603175	0.01587302	0.01079860	-0.00184366	1.03771322
0.76190476	0.01587302	0.01380936	-0.00121676	1.03687029
0.77777778	0.01587302	0.01585033	-0.00061601	1.03604493
0.79365079	0.01587302	0.01695732	-0.00007454	1.03526933
0.80952381	0.01587302	0.01721342	0.00038384	1.03456727
0.82539683	0.01587302	0.01673717	0.00074617	1.03395358
0.84126984	0.01587302	0.01566828	0.00101011	1.03343474
0.85714286	0.01587302	0.01415303	0.00118234	1.03301032
0.87301587	0.01587302	0.01233162	0.00127561	1.03267492
0.88888889	0.01587302	0.01032944	0.00130515	1.03242020
0.90476190	0.01587302	0.00825391	0.00128419	1.03223675
0.92063492	0.01587302	0.00619823	0.00121880	1.03211562
0.93650794	0.01587302	0.00425238	0.00110265	1.03204899
0.95238095	0.01587302	0.00251982	0.00091391	1.03202972
0.96825397	0.01587302	0.00113333	0.00062314	1.03204900
0.98412698	0.01587302	0.00025231	0.00024079	1.03209189
1.00000000	0.01587302	0.00000000	0.00000000	1.03211680
0.00000000	0.03174603	0.00000000	0.00000000	1.04065187
0.01587302	0.03174603	0.00043250	-0.00081522	1.04066192
0.03174603	0.03174603	0.00131249	-0.00129964	1.04066495
0.04761905	0.03174603	0.00233755	-0.00142444	1.04063348
0.06349206	0.03174603	0.00327317	-0.00126888	1.04056807
0.07936508	0.03174603	0.00395122	-0.00093081	1.04047152
0.09523810	0.03174603	0.00426440	-0.00049384	1.04034788
0.11111111	0.03174603	0.00415385	-0.00001762	1.04020121
0.12698413	0.03174603	0.00359341	0.00046297	1.04003453
0.14285714	0.03174603	0.00257398	0.00093467	1.03984945
0.15873016	0.03174603	0.00109034	0.00140044	1.03964610
0.17460317	0.03174603	-0.00086790	0.00187309	1.03942350
0.19047619	0.03174603	-0.00332038	0.00236876	1.03918003
0.20634921	0.03174603	-0.00629555	0.00290161	1.03891394
0.22222222	0.03174603	-0.00982649	0.00348008	1.03862391
0.23809524	0.03174603	-0.01394460	0.00410503	1.03830939
0.25396825	0.03174603	-0.01867238	0.00476936	1.03797099
0.26984127	0.03174603	-0.02401657	0.00545849	1.03761073
0.28571429	0.03174603	-0.02996209	0.00615119	1.03723238
0.30158730	0.03174603	-0.03646721	0.00682053	1.03684166
0.31746032	0.03174603	-0.04346036	0.00743490	1.03644648
0.33333333	0.03174603	-0.05083872	0.00795928	1.03605706
0.34920635	0.03174603	-0.05846906	0.00835695	1.03568585
0.36507937	0.03174603	-0.06619070	0.00859145	1.03534732
0.38095238	0.03174603	-0.07382071	0.00862894	1.03505744
0.39682540	0.03174603	-0.08116071	0.00844049	1.03483293
0.41269841	0.03174603	-0.08800489	0.00800422	1.03469022
0.42857143	0.03174603	-0.09414827	0.00730713	1.03464432
0.44444444	0.03174603	-0.09939488	0.00634631	1.03470737
0.46031746	0.03174603	-0.10356512	0.00512978	1.03488737
0.47619048	0.03174603	-0.10650220	0.00367675	1.03518678
0.49206349	0.03174603	-0.10807750	0.00201749	1.03560149
0.50793651	0.03174603	-0.10819497	0.00019295	1.03612000
0.52380952	0.03174603	-0.10679475	-0.00174601	1.03672315
0.53968254	0.03174603	-0.10385609	-0.00373960	1.03738436
0.55555556	0.03174603	-0.09939972	-0.00572052	1.03807054
0.57142857	0.03174603	-0.09348970	-0.00761583	1.03874369
0.58730159	0.03174603	-0.08623454	-0.00934946	1.03936318
0.60317460	0.03174603	-0.07778736	-0.01084550	1.03988861
0.61904762	0.03174603	-0.06834476	-0.01203225	1.04028304
0.63492063	0.03174603	-0.05814374	-0.01284703	1.04051624
0.65079365	0.03174603	-0.04745638	-0.01324145	1.04056780
0.66666667	0.03174603	-0.03658168	-0.01318672	1.04042932
0.68253968	0.03174603	-0.02583442	-0.01267827	1.04010563
0.69841270	0.03174603	-0.01553112	-0.01173896	1.03961457
0.71428571	0.03174603	-0.00597373	-0.01041995	1.03898522
0.73015873	0.03174603	0.00256792	-0.00879848	1.03825492
0.74603175	0.03174603	0.00987314	-0.00697242	1.03746525
0.76190476	0.03174603	0.01578493	-0.00505174	1.03665786
0.77777778	0.03174603	0.02021999	-0.00314796	1.03587047
0.79365079	0.03174603	0.02317246	-0.00136309	1.03513395
0.80952381	0.03174603	0.02471058	0.00022015	1.03447054
0.82539683	0.03174603	0.02496629	0.00154514	1.03389352
0.84126984	0.03174603	0.02411932	0.00258414	1.03340792
0.85714286	0.03174603	0.02237816	0.00333666	1.03301215
0.87301587	0.03174603	0.01996098	0.00382360	1.03269998
0.88888889	0.03174603	0.01708002	0.00407772	1.03246251
0.90476190	0.03174603	0.01393241	0.00413121	1.03229007
0.92063492	0.03174603	0.01069990	0.00400153	1.03217353
0.93650794	0.03174603	0.00755792	0.00367840	1.03210525
0.95238095	0.03174603	0.00469158	0.00311904	1.03207912
0.96825397	0.03174603	0.00231149	0.00226751	1.03208997
0.98412698	0.03174603	0.00065926	0.00113333	1.03213259
1.00000000	0.03174603	0.00000000	0.00000000	1.03216116
0.00000000	0.04761905	0.00000000	0.00000000	1.04068078
0.01587302	0.04761905	0.00050676	-0.00154970	1.04069128
0.03174603	0.04761905	0.00145964	-0.00233085	1.04069352
0.04761905	0.04761905	0.00248029	-0.00244799	1.04065981
0.06349206	0.04761905	0.00329829	-0.00206345	1.04059361
0.07936508	0.04761905	0.00372305	-0.00134380	1.04049900
0.09523810	0.04761905	0.00362821	-0.00042975	1.04038040
0.11111111	0.04761905	0.00293653	0.00057660	1.04024165
0.12698413	0.04761905	0.00160375	0.00161406	1.04008531
0.14285714	0.04761905	-0.00039707	0.00265795	1.03991234
0.15873016	0.04761905	-0.00308832	0.00371136	1.03972219
0.17460317	0.04761905	-0.00649609	0.00479383	1.03951312
0.19047619	0.04761905	-0.01065277	0.00592966	1.03928277
0.20634921	0.04761905	-0.01559432	0.00713793	1.03902861
0.22222222	0.04761905	-0.02135344	0.00842550	1.03874847
0.23809524	0.04761905	-0.02795054	0.00978351	1.03844093
0.25396825	0.04761905	-0.03538424	0.01118677	1.03810562
0.26984127	0.04761905	-0.04362288	0.01259503	1.03774363
0.28571429	0.04761905	-0.05259817	0.01395533	1.03735781
0.30158730	0.04761905	-0.06220151	0.01520501	1.03695318
0.31746032	0.04761905	-0.07228383	0.01627523	1.03653716
0.33333333	0.04761905	-0.08265880	0.01709514	1.03611981
0.34920635	0.04761905	-0.09310956	0.01759643	1.03571387
0.36507937	0.04761905	-0.10339804	0.01771814	1.03533441
0.38095238	0.04761905	-0.11327582	0.01741095	1.03499843
0.39682540	0.04761905	-0.12249535	0.01664062	1.03472393
0.41269841	0.04761905	-0.13082012	0.01539019	1.03452888
0.42857143	0.04761905	-0.13803312	0.01366093	1.03442991
0.44444444	0.04761905	-0.14394312	0.01147210	1.03444084
0.46031746	0.04761905	-0.14838879	0.00886001	1.03457124
0.47619048	0.04761905	-0.15124115	0.00587659	1.03482508
0.49206349	0.04761905	-0.15240465	0.00258791	1.03519953
0.50793651	0.04761905	-0.15181769	-0.00092725	1.03568422
0.52380952	0.04761905	-0.14945288	-0.00457880	1.03626081
0.53968254	0.04761905	-0.14531749	-0.00826657	1.03690331
0.55555556	0.04761905	-0.13945425	-0.01188190	1.03757885
0.57142857	0.04761905	-0.13194259	-0.01530970	1.03824928
0.58730159	0.04761905	-0.12290014	-0.01843119	1.03887344
0.60317460	0.04761905	-0.11248415	-0.02112793	1.03940997
0.61904762	0.04761905	-0.10089241	-0.02328699	1.03982062
0.63492063	0.04761905	-0.08836298	-0.02480750	1.04007364
0.65079365	0.04761905	-0.07517204	-0.02560826	1.04014699
0.66666667	0.04761905	-0.06162911	-0.02563592	1.04003081
0.68253968	0.04761905	-0.04806903	-0.02487275	1.03972888
0.69841270	0.04761905	-0.03484038	-0.02334286	1.03925848
0.71428571	0.04761905	-0.02229038	-0.02111553	1.03864883
0.73015873	0.04761905	-0.01074705	-0.01830424	1.03793795
0.74603175	0.04761905	-0.00050010	-0.01506067	1.03716849
0.76190476	0.04761905	0.00821762	-0.01156360	1.03638322
0.77777778	0.04761905	0.01524563	-0.00800354	1.03562074
0.79365079	0.04761905	0.02050604	-0.00456513	1.03491226
0.80952381	0.04761905	0.02400685	-0.00140998	1.03427971
0.82539683	0.04761905	0.02583755	0.00133743	1.03373539
0.84126984	0.04761905	0.02615743	0.00359825	1.03328289
0.85714286	0.04761905	0.02517850	0.00534067	1.03291897
0.87301587	0.04761905	0.02314570	0.00657374	1.03263569
0.88888889	0.04761905	0.02031789	0.00733373	1.03242273
0.90476190	0.04761905	0.01695339	0.00766431	1.03226926
0.92063492	0.04761905	0.01330308	0.00759329	1.03216555
0.93650794	0.04761905	0.00961273	0.00711097	1.03210405
0.95238095	0.04761905	0.00613374	0.00616034	1.03208008
0.96825397	0.04761905	0.00314026	0.00465546	1.03209220
0.98412698	0.04761905	0.00095441	0.00255228	1.03214256
1.00000000	0.04761905	0.00000000	0.00000000	1.03217782
0.00000000	0.06349206	0.00000000	0.00000000	1.04075174
0.01587302	0.06349206	0.00047936	-0.00227486	1.04075972
0.03174603	0.06349206	0.00130333	-0.00327317	1.04075656
0.04761905	0.06349206	0.00206075	-0.00326308	1.04071752
0.06349206	0.06349206	0.00246897	-0.00251164	1.04064757
0.07936508	0.06349206	0.00233277	-0.00126073	1.04055183
0.09523810	0.06349206	0.00151972	0.00029268	1.04043516
0.11111111	0.06349206	-0.00005815	0.00200685	1.04030134
0.12698413	0.06349206	-0.00246029	0.00379658	1.04015242
0.14285714	0.06349206	-0.00573141	0.00562673	1.03998854
0.15873016	0.06349206	-0.00991161	0.00749946	1.03980805
0.17460317	0.06349206	-0.01504136	0.00943754	1.03960801
0.19047619	0.06349206	-0.02116039	0.01146698	1.03938472
0.20634921	0.06349206	-0.02830135	0.01360227	1.03913429
0.22222222	0.06349206	-0.03647977	0.01583630	1.03885315
0.23809524	0.06349206	-0.04568299	0.01813583	1.03853848
0.25396825	0.06349206	-0.05586005	0.02044171	1.03818863
0.26984127	0.06349206	-0.06691449	0.02267242	1.03780358
0.28571429	0.06349206	-0.07870142	0.02472982	1.03738535
0.30158730	0.06349206	-0.09102937	0.02650619	1.03693857
0.31746032	0.06349206	-0.10366715	0.02789219	1.03647083
0.33333333	0.06349206	-0.11635488	0.02878502	1.03599292
0.34920635	0.06349206	-0.12881765	0.02909618	1.03551885
0.36507937	0.06349206	-0.14077986	0.02875771	1.03506551
0.38095238	0.06349206	-0.15197823	0.02772625	1.03465202
0.39682540	0.06349206	-0.16217202	0.02598479	1.03429876
0.41269841	0.06349206	-0.17114967	0.02354199	1.03402612
0.42857143	0.06349206	-0.17873208	0.02043012	1.03385300
0.44444444	0.06349206	-0.18477304	0.01670198	1.03379534
0.46031746	0.06349206	-0.18915782	0.01242781	1.03386455
0.47619048	0.06349206	-0.19180070	0.00769260	1.03406614
0.49206349	0.06349206	-0.19264249	0.00259403	1.03439858
0.50793651	0.06349206	-0.19164850	-0.00275882	1.03485251
0.52380952	0.06349206	-0.18880733	-0.00824621	1.03541035
0.53968254	0.06349206	-0.18413097	-0.01373823	1.03604655
0.55555556	0.06349206	-0.17765597	-0.01909542	1.03672833
0.57142857	0.06349206	-0.16944582	-0.02416994	1.03741717
0.58730159	0.06349206	-0.15959432	-0.02880790	1.03807100
0.60317460	0.06349206	-0.14822944	-0.03285323	1.03864694
0.61904762	0.06349206	-0.13551729	-0.03615342	1.03910460
0.63492063	0.06349206	-0.12166540	-0.03856740	1.03940959
0.65079365	0.06349206	-0.10692441	-0.03997532	1.03953688
0.66666667	0.06349206	-0.09158728	-0.04028972	1.03947368
0.68253968	0.06349206	-0.07598487	-0.03946699	1.03922112
0.69841270	0.06349206	-0.06047721	-0.03751762	1.03879466
0.71428571	0.06349206	-0.04544006	-0.03451329	1.03822263
0.73015873	0.06349206	-0.03124710	-0.03058876	1.03754334
0.74603175	0.06349206	-0.01824888	-0.02593709	1.03680071
0.76190476	0.06349206	-0.00675072	-0.02079746	1.03603944
0.77777778	0.06349206	0.00300779	-0.01543637	1.03530029
0.79365079	0.06349206	0.01086882	-0.01012432	1.03461629
0.80952381	0.06349206	0.01676558	-0.00511137	1.03401056
0.82539683	0.06349206	0.02072357	-0.00060544	1.03349567
0.84126984	0.06349206	0.02285389	0.00324319	1.03307464
0.85714286	0.06349206	0.02333995	0.00634838	1.03274289
0.87301587	0.06349206	0.02241969	0.00868420	1.03249083
0.88888889	0.06349206	0.02036647	0.01027003	1.03230633
0.90476190	0.06349206	0.01747185	0.01114603	1.03217702
0.92063492	0.06349206	0.01403360	0.01134218	1.03209204
0.93650794	0.06349206	0.01035164	0.01084774	1.03204350
0.95238095	0.06349206	0.00673379	0.00959152	1.03202749
0.96825397	0.06349206	0.00351383	0.00744684	1.03204486
0.98412698	0.06349206	0.00108929	0.00427359	1.03210189
1.00000000	0.06349206	0.00000000	0.00000000	1.03214146
0.00000000	0.07936508	0.00000000	0.00000000	1.04086634
0.01587302	0.07936508	0.00037234	-0.00285302	1.04086851
0.03174603	0.07936508	0.00089166	-0.00391224	1.04085446
0.04761905	0.07936508	0.00115789	-0.00361363	1.04080632
0.06349206	0.07936508	0.00090160	-0.00233548	1.04072957
0.07936508	0.07936508	-0.00006198	-0.00039456	1.04062981
0.09523810	0.07936508	-0.00186212	0.00196117	1.04051204
0.11111111	0.07936508	-0.00459193	0.00455662	1.04037971
0.12698413	0.07936508	-0.00832258	0.00728732	1.04023411
0.14285714	0.07936508	-0.01311367	0.01010927	1.04007418
0.15873016	0.07936508	-0.01901885	0.01302131	1.03989679
0.17460317	0.07936508	-0.02608572	0.01604261	1.03969722
0.19047619	0.07936508	-0.03434967	0.01918965	1.03946989
0.20634921	0.07936508	-0.04382328	0.02245731	1.03920893
0.22222222	0.07936508	-0.05448399	0.02580715	1.03890885
0.23809524	0.07936508	-0.06626291	0.02916379	1.03856504
0.25396825	0.07936508	-0.07903760	0.03241827	1.03817436
0.26984127	0.07936508	-0.09263044	0.03543640	1.03773576
0.28571429	0.07936508	-0.10681357	0.03807021	1.03725089
0.30158730	0.07936508	-0.12131981	0.04017074	1.03672471
0.31746032	0.07936508	-0.13585823	0.04160075	1.03616599
0.33333333	0.07936508	-0.15013175	0.04224563	1.03558744
0.34920635	0.07936508	-0.16385385	0.04202140	1.03500564
0.36507937	0.07936508	-0.17676203	0.04087872	1.03444045
0.38095238	0.07936508	-0.18862652	0.03880312	1.03391419
0.39682540	0.07936508	-0.19925400	0.03581205	1.03345035
0.41269841	0.07936508	-0.20848720	0.03195025	1.03307217
0.42857143	0.07936508	-0.21620159	0.02728431	1.03280112
0.44444444	0.07936508	-0.22230061	0.02189784	1.03265524
0.46031746	0.07936508	-0.22671057	0.01588766	1.03264777
0.47619048	0.07936508	-0.22937604	0.00936126	1.03278571
0.49206349	0.07936508	-0.23025629	0.00243571	1.03306887
0.50793651	0.07936508	-0.22932309	-0.00476242	1.03348903
0.52380952	0.07936508	-0.22655995	-0.01209632	1.03402970
0.53968254	0.07936508	-0.22196289	-0.01941793	1.03466615
0.55555556	0.07936508	-0.21554263	-0.02656705	1.03536615
0.57142857	0.07936508	-0.20732840	-0.03337134	1.03609126
0.58730159	0.07936508	-0.19737287	-0.03964757	1.03679874
0.60317460	0.07936508	-0.18575824	-0.04520496	1.03744422
0.61904762	0.07936508	-0.17260299	-0.04985103	1.03798479
0.63492063	0.07936508	-0.15806856	-0.05340038	1.03838258
0.65079365	0.07936508	-0.14236502	-0.05568638	1.03860827
0.66666667	0.07936508	-0.12575469	-0.05657546	1.03864428
0.68253968	0.07936508	-0.10855208	-0.05598282	1.03848705
0.69841270	0.07936508	-0.09111891	-0.05388767	1.03814792
0.71428571	0.07936508	-0.07385303	-0.05034564	1.03765234
0.73015873	0.07936508	-0.05717105	-0.04549542	1.03703722
0.74603175	0.07936508	-0.04148519	-0.03955705	1.03634676
0.76190476	0.07936508	-0.02717679	-0.03282027	1.03562737
0.77777778	0.07936508	-0.01456958	-0.02562308	1.03492245
0.79365079	0.07936508	-0.00390684	-0.01832292	1.03426804
0.80952381	0.07936508	0.00466423	-0.01126473	1.03368994
0.82539683	0.07936508	0.01109873	-0.00475088	1.03320267
0.84126984	0.07936508	0.01545105	0.00098187	1.03281017
0.85714286	0.07936508	0.01786400	0.00577487	1.03250779
0.87301587	0.07936508	0.01855278	0.00954722	1.03228505
0.88888889	0.07936508	0.01778653	0.01228156	1.03212845
0.90476190	0.07936508	0.01587043	0.01399719	1.03202406
0.92063492	0.07936508	0.01313109	0.01471350	1.03195971
0.93650794	0.07936508	0.00990840	0.01441077	1.03192659
0.95238095	0.07936508	0.00655719	0.01299815	1.03192062
0.96825397	0.07936508	0.00346302	0.01029996	1.03194338
0.98412698	0.07936508	0.00107953	0.00606611	1.03200252
1.00000000	0.07936508	0.00000000	0.00000000	1.03204253
0.00000000	0.09523810	0.00000000	0.00000000	1.04102292
0.01587302	0.09523810	0.00019753	-0.00316653	1.04101620
0.03174603	0.09523810	0.00025622	-0.00405873	1.04098617
0.04761905	0.09523810	-0.00017153	-0.00327302	1.04092542
0.06349206	0.09523810	-0.00131549	-0.00129176	1.04083913
0.07936508	0.09523810	-0.00333543	0.00150299	1.04073263
0.09523810	0.09523810	-0.00634991	0.00482262	1.04061043
0.11111111	0.09523810	-0.01045280	0.00846731	1.04047518
0.12698413	0.09523810	-0.01572307	0.01231831	1.04032694
0.14285714	0.09523810	-0.02222979	0.01632300	1.04016299
0.15873016	0.09523810	-0.03003171	0.02047152	1.03997816
0.17460317	0.09523810	-0.03917097	0.02476835	1.03976542
0.19047619	0.09523810	-0.04966169	0.02920454	1.03951671
0.20634921	0.09523810	-0.06147633	0.03373660	1.03922370
0.22222222	0.09523810	-0.07453341	0.03827593	1.03887855
0.23809524	0.09523810	-0.08869023	0.04268944	1.03847472
0.25396825	0.09523810	-0.10374290	0.04680924	1.03800774
0.26984127	0.09523810	-0.11943449	0.05044839	1.03747601
0.28571429	0.09523810	-0.13547026	0.05341919	1.03688168
0.30158730	0.09523810	-0.15153751	0.05555086	1.03623124
0.31746032	0.09523810	-0.16732649	0.05670413	1.03553595
0.33333333	0.09523810	-0.18254862	0.05678064	1.03481182
0.34920635	0.09523810	-0.19694944	0.05572646	1.03407917
0.36507937	0.09523810	-0.21031512	0.05353038	1.03336180
0.38095238	0.09523810	-0.22247311	0.05021822	1.03268577
0.39682540	0.09523810	-0.23328838	0.04584546	1.03207794
0.41269841	0.09523810	-0.24265736	0.04048958	1.03156447
0.42857143	0.09523810	-0.25050096	0.03424354	1.03116920
0.44444444	0.09523810	-0.25675801	0.02721097	1.03091216
0.46031746	0.09523810	-0.26137965	0.01950324	1.03080828
0.47619048	0.09523810	-0.26432508	0.01123831	1.03086613
0.49206349	0.09523810	-0.26555849	0.00254108	1.03108706
0.50793651	0.09523810	-0.26504744	-0.00645515	1.03146451
0.52380952	0.09523810	-0.26276245	-0.01560641	1.03198363
0.53968254	0.09523810	-0.25867790	-0.02475556	1.03262135
0.55555556	0.09523810	-0.25277447	-0.03372990	1.03334689
0.57142857	0.09523810	-0.24504297	-0.04233971	1.03412273
0.58730159	0.09523810	-0.23548996	-0.05037806	1.03490628
0.60317460	0.09523810	-0.22414496	-0.05762310	1.03565216
0.61904762	0.09523810	-0.21106918	-0.06384310	1.03631504
0.63492063	0.09523810	-0.19636529	-0.06880538	1.03685307
0.65079365	0.09523810	-0.18018742	-0.07228919	1.03723147
0.66666667	0.09523810	-0.16274991	-0.07410266	1.03742606
0.68253968	0.09523810	-0.14433330	-0.07410277	1.03742611
0.69841270	0.09523810	-0.12528515	-0.07221667	1.03723602
0.71428571	0.09523810	-0.10601378	-0.06846115	1.03687534
0.73015873	0.09523810	-0.08697327	-0.06295660	1.03637689
0.74603175	0.09523810	-0.06863942	-0.05593134	1.03578301
0.76190476	0.09523810	-0.05147831	-0.04771307	1.03514053
0.77777778	0.09523810	-0.03591124	-0.03870633	1.03449515
0.79365079	0.09523810	-0.02228163	-0.02935813	1.03388647
0.80952381	0.09523810	-0.01082972	-0.02011693	1.03334428
0.82539683	0.09523810	-0.00167921	-0.01139226	1.03288678
0.84126984	0.09523810	0.00516315	-0.00352209	1.03252078
0.85714286	0.09523810	0.00979727	0.00324666	1.03224340
0.87301587	0.09523810	0.01241261	0.00876168	1.03204479
0.88888889	0.09523810	0.01326861	0.01295238	1.03191119
0.90476190	0.09523810	0.01267562	0.01580147	1.03182782
0.92063492	0.09523810	0.01097887	0.01730421	1.03178133
0.93650794	0.09523810	0.00854800	0.01742164	1.03176183
0.95238095	0.09523810	0.00577511	0.01603690	1.03176437
0.96825397	0.09523810	0.00308516	0.01292450	1.03179000
0.98412698	0.09523810	0.00096287	0.00773661	1.03184592
1.00000000	0.09523810	0.00000000	0.00000000	1.03188273
0.00000000	0.11111111	0.00000000	0.00000000	1.04121731
0.01587302	0.11111111	-0.00004069	-0.00310924	1.04119902
0.03174603	0.11111111	-0.00058415	-0.00354318	1.04114862
0.04761905	0.11111111	-0.00188492	-0.00204193	1.04107241
0.06349206	0.11111111	-0.00410737	0.00082842	1.04097425
0.07936508	0.11111111	-0.00737295	0.00463986	1.04085824
0.09523810	0.11111111	-0.01178324	0.00907854	1.04072763
0.11111111	0.11111111	-0.01742888	0.01392979	1.04058355
0.12698413	0.11111111	-0.02439163	0.01906431	1.04042422
0.14285714	0.11111111	-0.03274186	0.02441791	1.04024468
0.15873016	0.11111111	-0.04253112	0.02996248	1.04003713
0.17460317	0.11111111	-0.05377973	0.03567259	1.03979168
0.19047619	0.11111111	-0.06646156	0.04149501	1.03949731
0.20634921	0.11111111	-0.08049027	0.04732902	1.03914286
0.22222222	0.11111111	-0.09571131	0.05302104	1.03871810
0.23809524	0.11111111	-0.11190295	0.05837328	1.03821476
0.25396825	0.11111111	-0.12878722	0.06316254	1.03762766
0.26984127	0.11111111	-0.14604899	0.06716376	1.03695572
0.28571429	0.11111111	-0.16335976	0.07017323	1.03620287
0.30158730	0.11111111	-0.18040134	0.07202697	1.03537860
0.31746032	0.11111111	-0.19688523	0.07261185	1.03449808
0.33333333	0.11111111	-0.21256471	0.07186857	1.03358179
0.34920635	0.11111111	-0.22723938	0.06978790	1.03265465
0.36507937	0.11111111	-0.24075320	0.06640239	1.03174481
0.38095238	0.11111111	-0.25298856	0.06177637	1.03088217
0.39682540	0.11111111	-0.26385851	0.05599631	1.03009686
0.41269841	0.11111111	-0.27329904	0.04916283	1.02941763
0.42857143	0.11111111	-0.28126210	0.04138495	1.02887045
0.44444444	0.11111111	-0.28770995	0.03277653	1.02847716
0.46031746	0.11111111	-0.29261055	0.02345473	1.02825428
0.47619048	0.11111111	-0.29593398	0.01354010	1.02821210
0.49206349	0.11111111	-0.29764969	0.00315808	1.02835380
0.50793651	0.11111111	-0.29772447	-0.00755846	1.02867494
0.52380952	0.11111111	-0.29612130	-0.01846587	1.02916307
0.53968254	0.11111111	-0.29279925	-0.02940591	1.02979768
0.55555556	0.11111111	-0.28771465	-0.04020199	1.03055050
0.57142857	0.11111111	-0.28082392	-0.05065585	1.03138612
0.58730159	0.11111111	-0.27208855	-0.06054558	1.03226331
0.60317460	0.11111111	-0.26148228	-0.06962574	1.03313672
0.61904762	0.11111111	-0.24900099	-0.07763070	1.03395936
0.63492063	0.11111111	-0.23467491	-0.08428214	1.03468559
0.65079365	0.11111111	-0.21858275	-0.08930176	1.03527466
0.66666667	0.11111111	-0.20086643	-0.09242958	1.03569436
0.68253968	0.11111111	-0.18174463	-0.09344758	1.03592445
0.69841270	0.11111111	-0.16152223	-0.09220719	1.03595924
0.71428571	0.11111111	-0.14059255	-0.08865752	1.03580876
0.73015873	0.11111111	-0.11942900	-0.08286978	1.03549803
0.74603175	0.11111111	-0.09856383	-0.07505201	1.03506419
0.76190476	0.11111111	-0.07855386	-0.06554846	1.03455196
0.77777778	0.11111111	-0.05993623	-0.05481976	1.03400797
0.79365079	0.11111111	-0.04318097	-0.04340444	1.03347506
0.80952381	0.11111111	-0.02864953	-0.03186714	1.03298779
0.82539683	0.11111111	-0.01656771	-0.02074375	1.03256962
0.84126984	0.11111111	-0.00701771	-0.01049462	1.03223225
0.85714286	0.11111111	0.00005235	-0.00147458	1.03197679
0.87301587	0.11111111	0.00480741	0.00607587	1.03179615
0.88888889	0.11111111	0.00750034	0.01201855	1.03167804
0.90476190	0.11111111	0.00844839	0.01628693	1.03160814
0.92063492	0.11111111	0.00801415	0.01884113	1.03157279
0.93650794	0.11111111	0.00659257	0.01961452	1.03156129
0.95238095	0.11111111	0.00460537	0.01846099	1.03156772
0.96825397	0.11111111	0.00250441	0.01511220	1.03159198
0.98412698	0.11111111	0.00078411	0.00915126	1.03163978
1.00000000	0.11111111	0.00000000	0.00000000	1.03167062
0.00000000	0.12698413	0.00000000	0.00000000	1.04144249
0.01587302	0.12698413	-0.00034058	-0.00258238	1.04141028
0.03174603	0.12698413	-0.00161432	-0.00221449	1.04133592
0.04761905	0.12698413	-0.00394150	0.00025020	1.04124208
0.06349206	0.12698413	-0.00739724	0.00419627	1.04113002
0.07936508	0.12698413	-0.01205344	0.00917886	1.04100142
0.09523810	0.12698413	-0.01798969	0.01487855	1.04085725
0.11111111	0.12698413	-0.02528925	0.02107569	1.04069637
0.12698413	0.12698413	-0.03403001	0.02763129	1.04051443
0.14285714	0.12698413	-0.04427295	0.03446250	1.04030356
0.15873016	0.12698413	-0.05604762	0.04150939	1.04005278
0.17460317	0.12698413	-0.06933519	0.04869879	1.03974885
0.19047619	0.12698413	-0.08405266	0.05591508	1.03937750
0.20634921	0.12698413	-0.10004316	0.06298634	1.03892473
0.22222222	0.12698413	-0.11707671	0.06968861	1.03837824
0.23809524	0.12698413	-0.13486250	0.07576535	1.03772882
0.25396825	0.12698413	-0.15307106	0.08095528	1.03697177
0.26984127	0.12698413	-0.17136130	0.08502092	1.03610798
0.28571429	0.12698413	-0.18940687	0.08777154	1.03514477
0.30158730	0.12698413	-0.20691658	0.08907633	1.03409612
0.31746032	0.12698413	-0.22364628	0.08886750	1.03298230
0.33333333	0.12698413	-0.23940197	0.08713479	1.03182906
0.34920635	0.12698413	-0.25403639	0.08391496	1.03066627